<?xml version="1.0" ?>
<VTKFile byte_order="LittleEndian" type="UnstructuredGrid" version="0.1">
<UnstructuredGrid>
<Piece NumberOfCells="0" NumberOfPoints="10">
<Points>
<DataArray NumberOfComponents="3" format="ascii" type="Float32">0.0681394819722 0.0681394819722 0.0681394819722 0.0 0.0 0.0 0.0 0.0 0.0 0.0 0.0 0.0 0.0 0.0 0.0 0.0 0.0 0.0 0.0 0.0 0.0 0.0 0.0 0.0 0.0 0.0 0.0 0.0 0.0 0.0 </DataArray>
</Points>
<PointData>
<DataArray Name="Points" format="ascii" type="Float32">0.0681394819722 0.0681394819722 0.0681394819722 0.0 0.0 0.0 0.0 0.0 0.0 0.0 0.0 0.0 0.0 0.0 0.0 0.0 0.0 0.0 0.0 0.0 0.0 0.0 0.0 0.0 0.0 0.0 0.0 0.0 0.0 0.0 </DataArray>
<DataArray Name="correlation p-value" format="ascii" type="Float32">0.0681394819722 0.0 0.0 0.0 0.0 0.0 0.0 0.0 0.0 0.0 </DataArray>
<DataArray Name="correlation coefficients" format="ascii" type="Float32">0.00372340090335 0.420705525445 0.396562289291 0.457222747651 0.523084137214 0.555440157056 0.589609864888 0.614782173018 0.637758454638 0.671944050355 </DataArray>
<DataArray Name="time" format="ascii" type="Float32">0.0 107.892491588 215.784983176 323.677474764 431.569966352 539.46245794 647.354949527 755.247441115 863.139932703 971.032424291 </DataArray>
</PointData>
<CellData/>
<Cells>
<DataArray Name="connectivity" format="ascii" type="Int32">0</DataArray>
<DataArray Name="offsets" format="ascii" type="Int32">0</DataArray>
<DataArray Name="types" format="ascii" type="UInt8">11</DataArray>
</Cells>
</Piece>
</UnstructuredGrid>
</VTKFile>
