<?xml version="1.0" ?>
<VTKFile byte_order="LittleEndian" type="UnstructuredGrid" version="0.1">
<UnstructuredGrid>
<Piece NumberOfCells="0" NumberOfPoints="101">
<Points>
<DataArray NumberOfComponents="3" format="ascii" type="Float32">55.2560633017 55.2560633017 55.2560633017 72.1826272719 72.1826272719 72.1826272719 81.3895910255 81.3895910255 81.3895910255 78.2585096545 78.2585096545 78.2585096545 74.0088227861 74.0088227861 74.0088227861 69.5959897939 69.5959897939 69.5959897939 65.1754534574 65.1754534574 65.1754534574 57.2928172288 57.2928172288 57.2928172288 52.4605826878 52.4605826878 52.4605826878 49.1733396204 49.1733396204 49.1733396204 48.939779607 48.939779607 48.939779607 51.1733117734 51.1733117734 51.1733117734 54.0677733737 54.0677733737 54.0677733737 56.0747795185 56.0747795185 56.0747795185 59.7180979098 59.7180979098 59.7180979098 64.2330787193 64.2330787193 64.2330787193 67.8480551675 67.8480551675 67.8480551675 70.385288003 70.385288003 70.385288003 71.5597517365 71.5597517365 71.5597517365 71.7231141346 71.7231141346 71.7231141346 68.0778979187 68.0778979187 68.0778979187 65.5519290004 65.5519290004 65.5519290004 62.8524747419 62.8524747419 62.8524747419 59.9636444211 59.9636444211 59.9636444211 58.4196428189 58.4196428189 58.4196428189 59.7435330628 59.7435330628 59.7435330628 63.2729526032 63.2729526032 63.2729526032 66.3907621813 66.3907621813 66.3907621813 70.5603397599 70.5603397599 70.5603397599 71.1744728008 71.1744728008 71.1744728008 69.9483077329 69.9483077329 69.9483077329 67.9999064473 67.9999064473 67.9999064473 65.6750648422 65.6750648422 65.6750648422 63.8071663065 63.8071663065 63.8071663065 64.3986739688 64.3986739688 64.3986739688 66.4407128096 66.4407128096 66.4407128096 68.7682042949 68.7682042949 68.7682042949 71.2298819181 71.2298819181 71.2298819181 72.5816679716 72.5816679716 72.5816679716 71.4794452809 71.4794452809 71.4794452809 68.6233256186 68.6233256186 68.6233256186 66.6459277904 66.6459277904 66.6459277904 65.2923713106 65.2923713106 65.2923713106 65.6248977774 65.6248977774 65.6248977774 67.029657332 67.029657332 67.029657332 69.0773044041 69.0773044041 69.0773044041 71.0671021143 71.0671021143 71.0671021143 72.7574729487 72.7574729487 72.7574729487 71.4770645127 71.4770645127 71.4770645127 70.1618905437 70.1618905437 70.1618905437 67.7177307904 67.7177307904 67.7177307904 66.2678064154 66.2678064154 66.2678064154 66.1233352743 66.1233352743 66.1233352743 68.1118307071 68.1118307071 68.1118307071 70.3877456085 70.3877456085 70.3877456085 72.1593740271 72.1593740271 72.1593740271 74.3734533134 74.3734533134 74.3734533134 73.4617747635 73.4617747635 73.4617747635 71.6438031905 71.6438031905 71.6438031905 68.6059537389 68.6059537389 68.6059537389 66.6305082768 66.6305082768 66.6305082768 66.2948640261 66.2948640261 66.2948640261 67.7105380704 67.7105380704 67.7105380704 69.0694050058 69.0694050058 69.0694050058 71.1729162018 71.1729162018 71.1729162018 74.0478007465 74.0478007465 74.0478007465 73.437152444 73.437152444 73.437152444 71.9619110654 71.9619110654 71.9619110654 69.6073088717 69.6073088717 69.6073088717 67.7176116359 67.7176116359 67.7176116359 67.1642555535 67.1642555535 67.1642555535 68.3748180352 68.3748180352 68.3748180352 69.7743127659 69.7743127659 69.7743127659 71.6916478125 71.6916478125 71.6916478125 74.0648700122 74.0648700122 74.0648700122 74.6741384679 74.6741384679 74.6741384679 73.4778771336 73.4778771336 73.4778771336 70.9281794324 70.9281794324 70.9281794324 68.2084711496 68.2084711496 68.2084711496 66.640059565 66.640059565 66.640059565 67.2247559003 67.2247559003 67.2247559003 69.0047191953 69.0047191953 69.0047191953 70.8743990352 70.8743990352 70.8743990352 72.9154433101 72.9154433101 72.9154433101 74.8417193072 74.8417193072 74.8417193072 73.8138615371 73.8138615371 73.8138615371 71.0079601559 71.0079601559 71.0079601559 68.2179194699 68.2179194699 68.2179194699 66.3563593206 66.3563593206 66.3563593206 66.8225871444 66.8225871444 66.8225871444 68.7690742855 68.7690742855 68.7690742855 70.8125509138 70.8125509138 70.8125509138 70.5846044937 70.5846044937 70.5846044937 69.1180137732 69.1180137732 69.1180137732 68.1855070232 68.1855070232 68.1855070232 67.7823866455 67.7823866455 67.7823866455 67.6075311001 67.6075311001 67.6075311001 67.5395057515 67.5395057515 67.5395057515 67.4971505627 67.4971505627 67.4971505627 67.492803239 67.492803239 67.492803239 67.4841068349 67.4841068349 67.4841068349 </DataArray>
</Points>
<PointData>
<DataArray Name="Points" format="ascii" type="Float32">55.2560633017 55.2560633017 55.2560633017 72.1826272719 72.1826272719 72.1826272719 81.3895910255 81.3895910255 81.3895910255 78.2585096545 78.2585096545 78.2585096545 74.0088227861 74.0088227861 74.0088227861 69.5959897939 69.5959897939 69.5959897939 65.1754534574 65.1754534574 65.1754534574 57.2928172288 57.2928172288 57.2928172288 52.4605826878 52.4605826878 52.4605826878 49.1733396204 49.1733396204 49.1733396204 48.939779607 48.939779607 48.939779607 51.1733117734 51.1733117734 51.1733117734 54.0677733737 54.0677733737 54.0677733737 56.0747795185 56.0747795185 56.0747795185 59.7180979098 59.7180979098 59.7180979098 64.2330787193 64.2330787193 64.2330787193 67.8480551675 67.8480551675 67.8480551675 70.385288003 70.385288003 70.385288003 71.5597517365 71.5597517365 71.5597517365 71.7231141346 71.7231141346 71.7231141346 68.0778979187 68.0778979187 68.0778979187 65.5519290004 65.5519290004 65.5519290004 62.8524747419 62.8524747419 62.8524747419 59.9636444211 59.9636444211 59.9636444211 58.4196428189 58.4196428189 58.4196428189 59.7435330628 59.7435330628 59.7435330628 63.2729526032 63.2729526032 63.2729526032 66.3907621813 66.3907621813 66.3907621813 70.5603397599 70.5603397599 70.5603397599 71.1744728008 71.1744728008 71.1744728008 69.9483077329 69.9483077329 69.9483077329 67.9999064473 67.9999064473 67.9999064473 65.6750648422 65.6750648422 65.6750648422 63.8071663065 63.8071663065 63.8071663065 64.3986739688 64.3986739688 64.3986739688 66.4407128096 66.4407128096 66.4407128096 68.7682042949 68.7682042949 68.7682042949 71.2298819181 71.2298819181 71.2298819181 72.5816679716 72.5816679716 72.5816679716 71.4794452809 71.4794452809 71.4794452809 68.6233256186 68.6233256186 68.6233256186 66.6459277904 66.6459277904 66.6459277904 65.2923713106 65.2923713106 65.2923713106 65.6248977774 65.6248977774 65.6248977774 67.029657332 67.029657332 67.029657332 69.0773044041 69.0773044041 69.0773044041 71.0671021143 71.0671021143 71.0671021143 72.7574729487 72.7574729487 72.7574729487 71.4770645127 71.4770645127 71.4770645127 70.1618905437 70.1618905437 70.1618905437 67.7177307904 67.7177307904 67.7177307904 66.2678064154 66.2678064154 66.2678064154 66.1233352743 66.1233352743 66.1233352743 68.1118307071 68.1118307071 68.1118307071 70.3877456085 70.3877456085 70.3877456085 72.1593740271 72.1593740271 72.1593740271 74.3734533134 74.3734533134 74.3734533134 73.4617747635 73.4617747635 73.4617747635 71.6438031905 71.6438031905 71.6438031905 68.6059537389 68.6059537389 68.6059537389 66.6305082768 66.6305082768 66.6305082768 66.2948640261 66.2948640261 66.2948640261 67.7105380704 67.7105380704 67.7105380704 69.0694050058 69.0694050058 69.0694050058 71.1729162018 71.1729162018 71.1729162018 74.0478007465 74.0478007465 74.0478007465 73.437152444 73.437152444 73.437152444 71.9619110654 71.9619110654 71.9619110654 69.6073088717 69.6073088717 69.6073088717 67.7176116359 67.7176116359 67.7176116359 67.1642555535 67.1642555535 67.1642555535 68.3748180352 68.3748180352 68.3748180352 69.7743127659 69.7743127659 69.7743127659 71.6916478125 71.6916478125 71.6916478125 74.0648700122 74.0648700122 74.0648700122 74.6741384679 74.6741384679 74.6741384679 73.4778771336 73.4778771336 73.4778771336 70.9281794324 70.9281794324 70.9281794324 68.2084711496 68.2084711496 68.2084711496 66.640059565 66.640059565 66.640059565 67.2247559003 67.2247559003 67.2247559003 69.0047191953 69.0047191953 69.0047191953 70.8743990352 70.8743990352 70.8743990352 72.9154433101 72.9154433101 72.9154433101 74.8417193072 74.8417193072 74.8417193072 73.8138615371 73.8138615371 73.8138615371 71.0079601559 71.0079601559 71.0079601559 68.2179194699 68.2179194699 68.2179194699 66.3563593206 66.3563593206 66.3563593206 66.8225871444 66.8225871444 66.8225871444 68.7690742855 68.7690742855 68.7690742855 70.8125509138 70.8125509138 70.8125509138 70.5846044937 70.5846044937 70.5846044937 69.1180137732 69.1180137732 69.1180137732 68.1855070232 68.1855070232 68.1855070232 67.7823866455 67.7823866455 67.7823866455 67.6075311001 67.6075311001 67.6075311001 67.5395057515 67.5395057515 67.5395057515 67.4971505627 67.4971505627 67.4971505627 67.492803239 67.492803239 67.492803239 67.4841068349 67.4841068349 67.4841068349 </DataArray>
<DataArray Name="1 stddev of GFP" format="ascii" type="Float32">55.2560633017 72.1826272719 81.3895910255 78.2585096545 74.0088227861 69.5959897939 65.1754534574 57.2928172288 52.4605826878 49.1733396204 48.939779607 51.1733117734 54.0677733737 56.0747795185 59.7180979098 64.2330787193 67.8480551675 70.385288003 71.5597517365 71.7231141346 68.0778979187 65.5519290004 62.8524747419 59.9636444211 58.4196428189 59.7435330628 63.2729526032 66.3907621813 70.5603397599 71.1744728008 69.9483077329 67.9999064473 65.6750648422 63.8071663065 64.3986739688 66.4407128096 68.7682042949 71.2298819181 72.5816679716 71.4794452809 68.6233256186 66.6459277904 65.2923713106 65.6248977774 67.029657332 69.0773044041 71.0671021143 72.7574729487 71.4770645127 70.1618905437 67.7177307904 66.2678064154 66.1233352743 68.1118307071 70.3877456085 72.1593740271 74.3734533134 73.4617747635 71.6438031905 68.6059537389 66.6305082768 66.2948640261 67.7105380704 69.0694050058 71.1729162018 74.0478007465 73.437152444 71.9619110654 69.6073088717 67.7176116359 67.1642555535 68.3748180352 69.7743127659 71.6916478125 74.0648700122 74.6741384679 73.4778771336 70.9281794324 68.2084711496 66.640059565 67.2247559003 69.0047191953 70.8743990352 72.9154433101 74.8417193072 73.8138615371 71.0079601559 68.2179194699 66.3563593206 66.8225871444 68.7690742855 70.8125509138 70.5846044937 69.1180137732 68.1855070232 67.7823866455 67.6075311001 67.5395057515 67.4971505627 67.492803239 67.4841068349 </DataArray>
<DataArray Name="GFP variance" format="ascii" type="Float32">3053.2325316 5210.33167987 6624.2655273 6124.39433334 5477.30585018 4843.60179539 4247.83973338 3282.46690601 2752.11273594 2418.01732943 2395.10202799 2618.70783786 2923.32411759 3144.38089805 3566.25121797 4125.88840176 4603.35859002 4954.08876727 5120.79806858 5144.20510117 4634.60018503 4297.05539568 3950.43358118 3595.63865227 3412.85466708 3569.28974283 4003.46653112 4407.73330302 4978.76154703 5065.80557847 4892.76575469 4623.98727684 4313.21414203 4071.35447206 4147.18920894 4414.36831865 4729.06592195 5073.69607806 5268.09852554 5109.31109767 4709.16081896 4441.67969104 4263.09375136 4306.6272083 4492.97496204 4771.67398373 5050.53300292 5293.64986988 5108.97075136 4922.69088467 4585.6910634 4391.42216711 4372.29546779 4639.22148228 4954.43473185 5206.97525998 5531.41055776 5396.6323514 5132.8345356 4706.77688842 4439.62463322 4395.00899624 4584.71696579 4770.58270785 5065.58400067 5483.0767954 5393.01535908 5178.51664419 4845.17744836 4585.67492567 4511.03722406 4675.11574134 4868.45472195 5139.69236608 5485.60496992 5576.22695592 5398.99842806 5030.80663759 4652.39553656 4440.89753882 4519.16780585 4761.65127123 5023.1804386 5316.66187311 5601.28294886 5448.48615501 5042.13040551 4653.68453681 4403.16642228 4465.25815268 4729.18557809 5014.41736692 4982.18639153 4777.29982795 4649.26336801 4594.45193937 4570.77826145 4561.58483716 4555.86533409 4555.27848906 4554.1046753 </DataArray>
<DataArray Name="GFP median" format="ascii" type="Float32">98.0 185.0 201.0 193.0 176.0 157.0 135.0 109.0 90.0 76.0 71.0 70.0 69.0 70.0 74.0 82.0 88.0 93.0 94.0 95.0 97.0 93.0 88.0 83.0 79.0 77.0 78.0 79.0 81.0 89.0 90.0 87.0 84.0 81.0 78.0 77.0 76.0 76.0 82.0 86.0 83.0 78.0 75.0 74.0 73.0 74.0 75.0 79.0 84.0 79.0 77.0 74.0 72.0 71.0 70.0 69.0 72.0 82.0 79.0 76.0 71.0 68.0 67.0 65.0 66.0 66.0 79.0 74.0 71.0 67.0 64.0 64.0 64.0 65.0 62.0 74.0 72.0 68.0 66.0 64.0 62.0 60.0 58.0 55.0 68.0 71.0 67.0 63.0 58.0 57.0 56.0 56.0 52.0 35.0 20.0 0.0 0.0 0.0 0.0 0.0 0.0 </DataArray>
<DataArray Name="GFP mean" format="ascii" type="Float32">79.2889666667 194.777525 215.72455 206.327325 189.25865 169.430325 147.23722583 120.367113077 100.737758726 87.4644071186 82.6975512244 83.6762697877 84.2159255478 84.8210889733 88.5244721157 96.3846077605 103.102411454 107.077177591 108.485754528 109.639959772 110.595634374 105.825245679 99.032102141 93.55850437 89.4860427729 88.3784405252 90.1283099846 92.0381006424 94.0682216806 101.474699839 101.739342178 98.3971581151 94.7198947278 91.2154618224 88.6389518099 88.187902312 88.2035455039 88.039884044 94.1927165537 97.8537274839 93.3632895941 88.1032617528 84.7586904095 83.7204093741 83.5354719459 85.5777777778 86.1716859879 89.5431184291 94.0575892099 87.8167004635 84.492600474 82.393150621 81.6351576913 81.9751427033 81.9627386438 80.7392044148 82.5961226288 91.0831024931 87.9585689949 83.929461823 79.6218308328 76.547988604 75.9959138809 74.9569279417 76.9111827505 76.9389510431 88.338692612 82.6686283902 78.6892675592 74.6184411615 72.4855242379 73.5558496311 73.7978250234 76.0073645216 72.7179998304 82.6616572689 80.428641515 76.054256403 73.0848149819 71.2638689279 70.7520491803 69.164162087 69.356623304 67.320849822 78.2212068843 79.3771475885 74.6070633854 69.9813554372 66.2279893058 65.4013344691 66.0987770905 67.0779478789 64.0470393782 55.0405973473 51.4211677785 50.0628524539 49.5028053517 49.2892257976 49.1574093122 49.1439295263 49.1169921206 </DataArray>
<DataArray Name="GFP +1 stddev" format="ascii" type="Float32">134.545029968 266.960152272 297.114141025 284.585834655 263.267472786 239.026314794 212.412679288 177.659930306 153.198341414 136.637746739 131.637330831 134.849581561 138.283698922 140.895868492 148.242570026 160.61768648 170.950466622 177.462465594 180.045506265 181.363073907 178.673532292 171.377174679 161.884576883 153.522148791 147.905685592 148.121973588 153.401262588 158.428862824 164.62856144 172.64917264 171.687649911 166.397064562 160.39495957 155.022628129 153.037625779 154.628615122 156.971749799 159.269765962 166.774384525 169.333172765 161.986615213 154.749189543 150.05106172 149.345307151 150.565129278 154.655082182 157.238788102 162.300591378 165.534653723 157.978591007 152.210331264 148.660957036 147.758492966 150.08697341 152.350484252 152.898578442 156.969575942 164.544877257 159.602372185 152.535415562 146.25233911 142.84285263 143.706451951 144.026332948 148.084098952 150.98675179 161.775845056 154.630539456 148.296576431 142.336052797 139.649779791 141.930667666 143.572137789 147.699012334 146.782869843 157.335795737 153.906518649 146.982435835 141.293286132 137.903928493 137.976805081 138.168881282 140.231022339 140.236293132 153.062926192 153.191009126 145.615023541 138.199274907 132.584348626 132.223921613 134.867851376 137.890498793 134.631643872 124.15861112 119.606674802 117.845239099 117.110336452 116.828731549 116.654559875 116.636732765 116.601098955 </DataArray>
<DataArray Name="GFP -1 stddev" format="ascii" type="Float32">24.032903365 122.594897728 134.334958975 128.068815345 115.249827214 99.8343352061 82.0617723727 63.0742958486 48.2771760385 38.2910674981 33.7577716173 32.5029580143 30.1481521741 28.7463094548 28.8063742059 32.1515290412 35.2543562869 36.6918895882 36.9260027917 37.9168456374 42.517736455 40.2733166782 36.1796273991 33.5948599489 31.0663999541 28.6349074624 26.8553573815 25.6473384611 23.5078819207 30.300227038 31.791034445 30.3972516678 29.0448298856 27.4082955159 24.2402778411 21.7471895024 19.435341209 16.8100021259 21.6110485821 26.374282203 24.7399639755 21.4573339623 19.4663190989 18.0955115967 16.505814614 16.5004733737 15.1045838736 16.7856454803 22.5805246972 17.6548099198 16.7748696836 16.1253442056 15.511822417 13.8633119962 11.5749930354 8.57983038774 8.22266931544 17.6213277296 16.3147658044 15.3235080841 12.991322556 10.2531245779 8.28537581042 5.88752293598 5.73826654865 2.89115029653 14.901540168 10.7067173248 9.08195868757 6.90082952556 5.32126868443 5.18103159594 4.02351225747 4.31571670911 -1.34687018184 7.98751880106 6.9507643814 5.12607697059 4.87634383237 4.6238093629 3.52729328006 0.159442891641 -1.51777573123 -5.59459348811 3.37948757707 5.56328605142 3.59910322947 1.76343596732 -0.128370014756 -1.42125267539 -2.67029719501 -3.7346030349 -6.5375651155 -14.0774164259 -16.7643392447 -17.7195341917 -18.1047257483 -18.250279954 -18.3397412505 -18.3488737127 -18.3671147143 </DataArray>
<DataArray Name="time" format="ascii" type="Float32">0.0 10.9341689025 21.868337805 32.8025067075 43.73667561 54.6708445125 65.605013415 76.5391823175 87.47335122 98.4075201224 109.341689025 120.275857927 131.21002683 142.144195732 153.078364635 164.012533537 174.94670244 185.880871342 196.815040245 207.749209147 218.68337805 229.617546952 240.551715855 251.485884757 262.42005366 273.354222562 284.288391465 295.222560367 306.15672927 317.090898172 328.025067075 338.959235977 349.89340488 360.827573782 371.761742685 382.695911587 393.63008049 404.564249392 415.498418295 426.432587197 437.3667561 448.300925002 459.235093905 470.169262807 481.10343171 492.037600612 502.971769515 513.905938417 524.84010732 535.774276222 546.708445125 557.642614027 568.57678293 579.510951832 590.445120735 601.379289637 612.31345854 623.247627442 634.181796345 645.115965247 656.05013415 666.984303052 677.918471955 688.852640857 699.78680976 710.720978662 721.655147565 732.589316467 743.52348537 754.457654272 765.391823175 776.325992077 787.26016098 798.194329882 809.128498785 820.062667687 830.99683659 841.931005492 852.865174395 863.799343297 874.7335122 885.667681102 896.601850005 907.536018907 918.47018781 929.404356712 940.338525615 951.272694517 962.206863419 973.141032322 984.075201224 995.009370127 1005.94353903 1016.87770793 1027.81187683 1038.74604574 1049.68021464 1060.61438354 1071.54855244 1082.48272135 1093.41689025 </DataArray>
<DataArray Name="GFP coefficient of variation" format="ascii" type="Float32">0.696894733589 0.370590124666 0.377284787594 0.379292997932 0.39104591936 0.410764659714 0.442656081639 0.475983977384 0.52076384616 0.562209717534 0.591792367276 0.61156301426 0.642013645543 0.661094784296 0.674594227817 0.666424652356 0.658064677736 0.657332305412 0.659623487413 0.654169467809 0.615556828298 0.619435642035 0.634667682328 0.640921365993 0.652835246801 0.675996687742 0.702031943281 0.721339985483 0.750097519643 0.701401166142 0.687524670747 0.691075918755 0.693360830171 0.699521386305 0.726527927664 0.753399401366 0.779653515083 0.809063786164 0.770565608756 0.730472380755 0.735014007293 0.756452445284 0.770332469687 0.783857822341 0.802409512636 0.807187405397 0.824715233311 0.812541200543 0.759928732101 0.798958400548 0.801463446627 0.804287806887 0.809986005347 0.830883954099 0.858777375831 0.893734023639 0.900447272175 0.806535710277 0.814517607656 0.817423968279 0.836837178697 0.866056250923 0.890976035588 0.921454586018 0.925390998507 0.96242280071 0.831313553241 0.870486331595 0.88458453142 0.907518444259 0.926588532809 0.929563296163 0.945479256927 0.943219755924 1.01852182658 0.903370933212 0.913578493302 0.932599735859 0.933278289976 0.935117059564 0.950145708557 0.997694718091 1.02188364512 1.08310342937 0.95679576279 0.929913253116 0.951759216002 0.974801345926 1.00193830458 1.02173124886 1.04039858697 1.05567557078 1.10207443121 1.25576423775 1.32602019691 1.35394575665 1.36573130795 1.37026915434 1.37308193225 1.37337009656 1.37394624388 </DataArray>
</PointData>
<CellData/>
<Cells>
<DataArray Name="connectivity" format="ascii" type="Int32">0</DataArray>
<DataArray Name="offsets" format="ascii" type="Int32">0</DataArray>
<DataArray Name="types" format="ascii" type="UInt8">11</DataArray>
</Cells>
</Piece>
</UnstructuredGrid>
</VTKFile>
