<?xml version="1.0" ?>
<VTKFile byte_order="LittleEndian" type="UnstructuredGrid" version="0.1">
<UnstructuredGrid>
<Piece NumberOfCells="0" NumberOfPoints="100">
<Points>
<DataArray NumberOfComponents="3" format="ascii" type="Float32">15.5116179741 15.5116179741 15.5116179741 74.3879805054 74.3879805054 74.3879805054 112.135536634 112.135536634 112.135536634 92.1628703841 92.1628703841 92.1628703841 73.4957964059 73.4957964059 73.4957964059 56.7469597926 56.7469597926 56.7469597926 41.7157497245 41.7157497245 41.7157497245 28.729138223 28.729138223 28.729138223 18.0497908127 18.0497908127 18.0497908127 10.1761916601 10.1761916601 10.1761916601 40.5439520255 40.5439520255 40.5439520255 95.1428851843 95.1428851843 95.1428851843 63.5413869769 63.5413869769 63.5413869769 35.7006357413 35.7006357413 35.7006357413 18.1759355422 18.1759355422 18.1759355422 8.20406278137 8.20406278137 8.20406278137 3.25749857475 3.25749857475 3.25749857475 1.25931071767 1.25931071767 1.25931071767 0.447937552531 0.447937552531 0.447937552531 3.95543004479 3.95543004479 3.95543004479 66.6222795222 66.6222795222 66.6222795222 73.5511591078 73.5511591078 73.5511591078 50.2038155136 50.2038155136 50.2038155136 30.6332668468 30.6332668468 30.6332668468 16.4779644495 16.4779644495 16.4779644495 8.93037851654 8.93037851654 8.93037851654 3.92703711625 3.92703711625 3.92703711625 1.48404909684 1.48404909684 1.48404909684 0.838372103108 0.838372103108 0.838372103108 29.8082763813 29.8082763813 29.8082763813 71.6960091334 71.6960091334 71.6960091334 48.1854008466 48.1854008466 48.1854008466 29.1278549618 29.1278549618 29.1278549618 16.8344831446 16.8344831446 16.8344831446 8.22073743896 8.22073743896 8.22073743896 3.83403733084 3.83403733084 3.83403733084 1.11455609277 1.11455609277 1.11455609277 -0.0899279244381 -0.0899279244381 -0.0899279244381 4.75354703476 4.75354703476 4.75354703476 53.7373597217 53.7373597217 53.7373597217 52.851360472 52.851360472 52.851360472 31.3233217242 31.3233217242 31.3233217242 18.2529673322 18.2529673322 18.2529673322 9.09763150664 9.09763150664 9.09763150664 4.07216835063 4.07216835063 4.07216835063 0.746958294921 0.746958294921 0.746958294921 -0.192403637055 -0.192403637055 -0.192403637055 -0.185466437536 -0.185466437536 -0.185466437536 26.1802646597 26.1802646597 26.1802646597 50.8886236987 50.8886236987 50.8886236987 36.4489693913 36.4489693913 36.4489693913 20.2945766231 20.2945766231 20.2945766231 10.4436112867 10.4436112867 10.4436112867 4.4550460781 4.4550460781 4.4550460781 1.1859827184 1.1859827184 1.1859827184 -0.319919846354 -0.319919846354 -0.319919846354 -1.04516644545 -1.04516644545 -1.04516644545 5.67706264306 5.67706264306 5.67706264306 40.5809253101 40.5809253101 40.5809253101 36.0102717555 36.0102717555 36.0102717555 20.9329116558 20.9329116558 20.9329116558 12.0049919409 12.0049919409 12.0049919409 5.0955380865 5.0955380865 5.0955380865 1.41204273099 1.41204273099 1.41204273099 -0.425944452878 -0.425944452878 -0.425944452878 -1.04929539038 -1.04929539038 -1.04929539038 -1.44188194848 -1.44188194848 -1.44188194848 19.7559271782 19.7559271782 19.7559271782 43.7044085108 43.7044085108 43.7044085108 22.3847791873 22.3847791873 22.3847791873 13.6341224423 13.6341224423 13.6341224423 6.53801912157 6.53801912157 6.53801912157 1.85575973507 1.85575973507 1.85575973507 0.212350703254 0.212350703254 0.212350703254 -1.03982797532 -1.03982797532 -1.03982797532 -1.33665359309 -1.33665359309 -1.33665359309 5.25664290822 5.25664290822 5.25664290822 31.1153330649 31.1153330649 31.1153330649 30.7220762454 30.7220762454 30.7220762454 13.4087377252 13.4087377252 13.4087377252 6.65605074448 6.65605074448 6.65605074448 2.3300795384 2.3300795384 2.3300795384 -0.757151304032 -0.757151304032 -0.757151304032 -1.57725023842 -1.57725023842 -1.57725023842 -1.82003142711 -1.82003142711 -1.82003142711 -2.73067284253 -2.73067284253 -2.73067284253 14.984762909 14.984762909 14.984762909 31.8143922302 31.8143922302 31.8143922302 17.4166279122 17.4166279122 17.4166279122 7.77799953085 7.77799953085 7.77799953085 2.13396131893 2.13396131893 2.13396131893 -0.0573041485615 -0.0573041485615 -0.0573041485615 -1.58404928105 -1.58404928105 -1.58404928105 -2.25223616064 -2.25223616064 -2.25223616064 -2.28794308585 -2.28794308585 -2.28794308585 -2.5488621508 -2.5488621508 -2.5488621508 -3.12030347927 -3.12030347927 -3.12030347927 -3.28112555023 -3.28112555023 -3.28112555023 -3.32006771473 -3.32006771473 -3.32006771473 -3.37935105761 -3.37935105761 -3.37935105761 </DataArray>
</Points>
<PointData>
<DataArray Name="Points" format="ascii" type="Float32">15.5116179741 15.5116179741 15.5116179741 74.3879805054 74.3879805054 74.3879805054 112.135536634 112.135536634 112.135536634 92.1628703841 92.1628703841 92.1628703841 73.4957964059 73.4957964059 73.4957964059 56.7469597926 56.7469597926 56.7469597926 41.7157497245 41.7157497245 41.7157497245 28.729138223 28.729138223 28.729138223 18.0497908127 18.0497908127 18.0497908127 10.1761916601 10.1761916601 10.1761916601 40.5439520255 40.5439520255 40.5439520255 95.1428851843 95.1428851843 95.1428851843 63.5413869769 63.5413869769 63.5413869769 35.7006357413 35.7006357413 35.7006357413 18.1759355422 18.1759355422 18.1759355422 8.20406278137 8.20406278137 8.20406278137 3.25749857475 3.25749857475 3.25749857475 1.25931071767 1.25931071767 1.25931071767 0.447937552531 0.447937552531 0.447937552531 3.95543004479 3.95543004479 3.95543004479 66.6222795222 66.6222795222 66.6222795222 73.5511591078 73.5511591078 73.5511591078 50.2038155136 50.2038155136 50.2038155136 30.6332668468 30.6332668468 30.6332668468 16.4779644495 16.4779644495 16.4779644495 8.93037851654 8.93037851654 8.93037851654 3.92703711625 3.92703711625 3.92703711625 1.48404909684 1.48404909684 1.48404909684 0.838372103108 0.838372103108 0.838372103108 29.8082763813 29.8082763813 29.8082763813 71.6960091334 71.6960091334 71.6960091334 48.1854008466 48.1854008466 48.1854008466 29.1278549618 29.1278549618 29.1278549618 16.8344831446 16.8344831446 16.8344831446 8.22073743896 8.22073743896 8.22073743896 3.83403733084 3.83403733084 3.83403733084 1.11455609277 1.11455609277 1.11455609277 -0.0899279244381 -0.0899279244381 -0.0899279244381 4.75354703476 4.75354703476 4.75354703476 53.7373597217 53.7373597217 53.7373597217 52.851360472 52.851360472 52.851360472 31.3233217242 31.3233217242 31.3233217242 18.2529673322 18.2529673322 18.2529673322 9.09763150664 9.09763150664 9.09763150664 4.07216835063 4.07216835063 4.07216835063 0.746958294921 0.746958294921 0.746958294921 -0.192403637055 -0.192403637055 -0.192403637055 -0.185466437536 -0.185466437536 -0.185466437536 26.1802646597 26.1802646597 26.1802646597 50.8886236987 50.8886236987 50.8886236987 36.4489693913 36.4489693913 36.4489693913 20.2945766231 20.2945766231 20.2945766231 10.4436112867 10.4436112867 10.4436112867 4.4550460781 4.4550460781 4.4550460781 1.1859827184 1.1859827184 1.1859827184 -0.319919846354 -0.319919846354 -0.319919846354 -1.04516644545 -1.04516644545 -1.04516644545 5.67706264306 5.67706264306 5.67706264306 40.5809253101 40.5809253101 40.5809253101 36.0102717555 36.0102717555 36.0102717555 20.9329116558 20.9329116558 20.9329116558 12.0049919409 12.0049919409 12.0049919409 5.0955380865 5.0955380865 5.0955380865 1.41204273099 1.41204273099 1.41204273099 -0.425944452878 -0.425944452878 -0.425944452878 -1.04929539038 -1.04929539038 -1.04929539038 -1.44188194848 -1.44188194848 -1.44188194848 19.7559271782 19.7559271782 19.7559271782 43.7044085108 43.7044085108 43.7044085108 22.3847791873 22.3847791873 22.3847791873 13.6341224423 13.6341224423 13.6341224423 6.53801912157 6.53801912157 6.53801912157 1.85575973507 1.85575973507 1.85575973507 0.212350703254 0.212350703254 0.212350703254 -1.03982797532 -1.03982797532 -1.03982797532 -1.33665359309 -1.33665359309 -1.33665359309 5.25664290822 5.25664290822 5.25664290822 31.1153330649 31.1153330649 31.1153330649 30.7220762454 30.7220762454 30.7220762454 13.4087377252 13.4087377252 13.4087377252 6.65605074448 6.65605074448 6.65605074448 2.3300795384 2.3300795384 2.3300795384 -0.757151304032 -0.757151304032 -0.757151304032 -1.57725023842 -1.57725023842 -1.57725023842 -1.82003142711 -1.82003142711 -1.82003142711 -2.73067284253 -2.73067284253 -2.73067284253 14.984762909 14.984762909 14.984762909 31.8143922302 31.8143922302 31.8143922302 17.4166279122 17.4166279122 17.4166279122 7.77799953085 7.77799953085 7.77799953085 2.13396131893 2.13396131893 2.13396131893 -0.0573041485615 -0.0573041485615 -0.0573041485615 -1.58404928105 -1.58404928105 -1.58404928105 -2.25223616064 -2.25223616064 -2.25223616064 -2.28794308585 -2.28794308585 -2.28794308585 -2.5488621508 -2.5488621508 -2.5488621508 -3.12030347927 -3.12030347927 -3.12030347927 -3.28112555023 -3.28112555023 -3.28112555023 -3.32006771473 -3.32006771473 -3.32006771473 -3.37935105761 -3.37935105761 -3.37935105761 </DataArray>
<DataArray Name="CFP -1 stddev" format="ascii" type="Float32">15.5116179741 74.3879805054 112.135536634 92.1628703841 73.4957964059 56.7469597926 41.7157497245 28.729138223 18.0497908127 10.1761916601 40.5439520255 95.1428851843 63.5413869769 35.7006357413 18.1759355422 8.20406278137 3.25749857475 1.25931071767 0.447937552531 3.95543004479 66.6222795222 73.5511591078 50.2038155136 30.6332668468 16.4779644495 8.93037851654 3.92703711625 1.48404909684 0.838372103108 29.8082763813 71.6960091334 48.1854008466 29.1278549618 16.8344831446 8.22073743896 3.83403733084 1.11455609277 -0.0899279244381 4.75354703476 53.7373597217 52.851360472 31.3233217242 18.2529673322 9.09763150664 4.07216835063 0.746958294921 -0.192403637055 -0.185466437536 26.1802646597 50.8886236987 36.4489693913 20.2945766231 10.4436112867 4.4550460781 1.1859827184 -0.319919846354 -1.04516644545 5.67706264306 40.5809253101 36.0102717555 20.9329116558 12.0049919409 5.0955380865 1.41204273099 -0.425944452878 -1.04929539038 -1.44188194848 19.7559271782 43.7044085108 22.3847791873 13.6341224423 6.53801912157 1.85575973507 0.212350703254 -1.03982797532 -1.33665359309 5.25664290822 31.1153330649 30.7220762454 13.4087377252 6.65605074448 2.3300795384 -0.757151304032 -1.57725023842 -1.82003142711 -2.73067284253 14.984762909 31.8143922302 17.4166279122 7.77799953085 2.13396131893 -0.0573041485615 -1.58404928105 -2.25223616064 -2.28794308585 -2.5488621508 -3.12030347927 -3.28112555023 -3.32006771473 -3.37935105761 </DataArray>
<DataArray Name="1 stddev of CFP" format="ascii" type="Float32">15.3119440436 26.7092695662 14.6035352755 16.0636902783 17.7251774653 18.7931317643 19.2702875567 19.0245636876 17.9672798919 16.0053247044 28.7228924903 23.6492331589 26.169665804 25.4351943182 22.7266687849 19.0792416861 15.3249812735 11.9527412601 9.16794879062 21.2446405933 31.6898569011 28.8303657562 26.8629608963 25.3213487021 22.8435436227 18.9184865483 15.1769244513 11.6487171046 9.64613034387 32.3922977374 34.2836647822 32.6449929336 29.8262261861 26.0429354435 22.0824850459 17.8853780384 14.2444931545 11.0088513495 25.764632694 40.9148435733 37.3261928715 33.5632374923 28.6824111177 24.1474227068 19.530603067 15.3047581875 11.6559363187 12.165079365 38.9532165837 44.9729871774 36.8044515842 31.9296862365 26.6272979334 21.6209552428 17.0085736388 13.2231479652 10.0292632434 29.2118909401 47.4487857102 42.1306784105 35.5130439463 29.1284571834 23.7219280648 18.8955116502 14.5947408449 11.072567236 15.6664983376 44.9668502958 45.5494382261 39.5780331864 31.8504450883 25.8213846634 20.5280508119 15.9520734866 12.1354632071 9.00236621671 33.2536948513 52.2315663849 42.5441723147 36.3833678508 29.2932528634 23.2824024932 18.1446178154 13.8693314446 10.3912630666 19.3379968503 49.7552306178 48.5755555538 40.2444155661 32.9562204548 26.5996048704 21.082442878 16.2410078978 12.4113738818 9.44689410225 9.33649491098 8.9849850518 8.84813689649 8.8114057974 8.7523390389 </DataArray>
<DataArray Name="CFP coefficient of variation" format="ascii" type="Float32">0.496761017913 0.264193828688 0.115225202896 0.14842650621 0.194310329227 0.248783544962 0.31597867997 0.398389296043 0.498854558142 0.611321532395 0.414670145451 0.199080826984 0.29171060859 0.416043984247 0.555628893533 0.699300984925 0.824700545818 0.904684698502 0.953416925227 0.843038930264 0.322339215218 0.281597346733 0.348567335338 0.452533690987 0.580942714118 0.6793270212 0.794438598384 0.886996458014 0.920037015839 0.520771684126 0.323492831366 0.40387026967 0.505923009999 0.607381141428 0.728717384989 0.82347419276 0.927433262644 1.00823596988 0.84423884134 0.432265094198 0.413918890983 0.517260244611 0.611104289876 0.726346317613 0.827470754236 0.953465519047 1.01678397422 1.01548183891 0.598052120662 0.469144913865 0.502426386292 0.611395632761 0.718280141858 0.829151485948 0.934816617942 1.02479378365 1.11633517191 0.837281945716 0.539008763748 0.539162607071 0.629151257472 0.708145263855 0.82317882982 0.930467120536 1.03006214791 1.10468591559 1.10136526069 0.694760825335 0.510335855444 0.638738489592 0.70024728864 0.797956131546 0.917093663245 0.986863082733 1.09371504683 1.17436781924 0.863500472495 0.626676777777 0.580679005011 0.730705549201 0.814848965725 0.909025625259 1.04354580948 1.12831433603 1.21234187847 1.16442581847 0.768539320245 0.604249124335 0.697948096989 0.809054904363 0.925732806542 1.00272550632 1.1080748962 1.22169560276 1.31959194589 1.37551562391 1.53204994008 1.58938725757 1.60460085771 1.62895191081 </DataArray>
<DataArray Name="time" format="ascii" type="Float32">0.0 10.5976685446 21.1953370892 31.7930056338 42.3906741784 52.988342723 63.5860112676 74.1836798123 84.7813483569 95.3790169015 105.976685446 116.574353991 127.172022535 137.76969108 148.367359625 158.965028169 169.562696714 180.160365258 190.758033803 201.355702348 211.953370892 222.551039437 233.148707981 243.746376526 254.344045071 264.941713615 275.53938216 286.137050704 296.734719249 307.332387794 317.930056338 328.527724883 339.125393427 349.723061972 360.320730517 370.918399061 381.516067606 392.11373615 402.711404695 413.30907324 423.906741784 434.504410329 445.102078874 455.699747418 466.297415963 476.895084507 487.492753052 498.090421597 508.688090141 519.285758686 529.88342723 540.481095775 551.07876432 561.676432864 572.274101409 582.871769953 593.469438498 604.067107043 614.664775587 625.262444132 635.860112676 646.457781221 657.055449766 667.65311831 678.250786855 688.8484554 699.446123944 710.043792489 720.641461033 731.239129578 741.836798123 752.434466667 763.032135212 773.629803756 784.227472301 794.825140846 805.42280939 816.020477935 826.618146479 837.215815024 847.813483569 858.411152113 869.008820658 879.606489202 890.204157747 900.801826292 911.399494836 921.997163381 932.594831925 943.19250047 953.790169015 964.387837559 974.985506104 985.583174649 996.180843193 1006.77851174 1017.37618028 1027.97384883 1038.57151737 1049.16918592 </DataArray>
<DataArray Name="CFP variance" format="ascii" type="Float32">234.455630394 713.38508076 213.263242544 258.042145357 314.181916176 353.181801511 371.343982518 361.934023504 322.823146716 256.170418892 825.004553011 559.286229004 684.851408294 646.949110006 516.501474058 364.017463317 234.855051034 142.86802363 84.0512850275 451.334753939 1004.24703041 831.189989635 721.618668118 641.170700091 521.827485244 357.909133279 230.339035802 135.692610184 93.047830611 1049.26095271 1175.3696709 1065.69556363 889.603768502 678.234486514 487.636145802 319.886747575 202.905585229 121.194808035 663.816297859 1674.02442463 1393.24467428 1126.49091096 822.680707526 583.09802338 381.444456162 234.235623178 135.860851465 147.989155957 1517.35308222 2022.56957566 1354.56765641 1019.50486316 709.012995235 467.465705613 289.291577225 174.851642108 100.586121206 853.334572296 2251.38726537 1774.99406333 1261.17629033 848.467017886 562.729871113 357.040360522 213.006460329 122.601745195 245.439170163 2022.01762553 2074.75132272 1566.42071091 1014.45085232 666.743905935 421.400870136 254.468648521 147.269467251 81.0425974997 1105.80822127 2728.13652702 1810.00659795 1323.74945617 858.094663322 542.070265857 329.227155667 192.358354721 107.978348119 373.958122181 2475.58297383 2359.58459736 1619.61298425 1086.11246666 707.53897926 444.469397704 263.770337538 154.042201635 89.2438081791 87.1701372228 80.7299563811 78.2895265391 77.6408721265 76.6034386518 </DataArray>
<DataArray Name="CFP median" format="ascii" type="Float32">30.0 101.0 127.0 109.0 91.0 75.0 61.0 47.0 34.0 23.0 69.0 118.0 89.0 59.0 37.0 23.0 14.0 10.0 7.0 19.0 102.0 106.0 80.0 57.0 38.0 25.0 16.0 10.0 8.0 64.0 113.0 86.0 62.0 43.0 28.0 18.0 12.0 8.0 26.0 104.0 98.0 70.0 48.0 31.0 20.0 12.0 8.0 8.0 70.0 110.0 81.0 56.0 37.0 23.0 14.0 9.0 6.0 31.0 104.0 90.0 63.0 42.0 27.0 17.0 10.0 7.0 8.0 73.0 103.0 72.0 49.0 32.0 19.0 13.0 8.0 5.0 35.0 105.0 85.0 55.0 36.0 22.0 13.0 9.0 6.0 8.0 77.0 97.0 67.0 43.0 26.0 17.0 10.0 6.0 4.0 3.0 1.0 0.0 0.0 0.0 </DataArray>
<DataArray Name="CFP +1 stddev" format="ascii" type="Float32">46.1355060612 127.806519638 141.342607185 124.290250941 108.946151336 94.3332233213 80.2563248379 66.7782655982 53.9843505966 42.1868410689 97.9897370061 142.441351502 115.880718585 86.5710243777 63.629273112 46.3625461536 33.9074611218 25.1647932378 18.7838351338 46.4447112314 130.001993324 131.21189062 103.929737306 81.2759642509 62.165051695 46.7673516132 34.2808860189 24.7814833061 20.1306327909 94.5928718561 140.263338698 113.475386714 88.7803073339 68.9203540316 52.3857075307 39.6047934076 29.6035424018 21.9277747745 56.2828124228 135.567046868 127.503746215 98.4497967088 75.6177895677 57.3924769202 43.1333744847 31.35647467 23.1194690003 24.1446922925 104.086697827 140.834598054 110.05787256 84.1539490961 63.6982071535 47.6969565638 35.2031299959 26.126376084 19.0133600414 64.1008445233 135.47849673 120.271628576 91.9589995484 70.2619063077 52.5393942162 39.2030660313 28.7635372369 21.0958390816 29.8911147268 109.68962777 134.803284963 101.54084556 77.3350126188 58.1807884483 42.9118613589 32.1164976764 23.2310984389 16.6680788403 71.7640326109 135.578465835 115.810420875 86.1754734268 65.2425564714 48.8948845249 35.5320843267 26.1614126509 18.9624947061 35.945320858 114.495224145 128.965503338 97.9054590443 73.6904404404 55.3331710597 42.1075816074 30.8979665146 22.570511603 16.6058451186 16.1241276712 14.8496666243 14.4151482428 14.3027438801 14.1253270202 </DataArray>
<DataArray Name="CFP mean" format="ascii" type="Float32">30.8235620177 101.097250072 126.739071909 108.226560662 91.2209738712 75.5400915569 60.9860372812 47.7537019106 36.0170707047 26.1815163645 69.2668445158 118.792118343 89.7110527809 61.1358300595 40.9026043271 27.2833044675 18.5824798483 13.2120519777 9.61588634315 25.2000706381 98.3121364233 102.381524864 77.06677641 55.9546155489 39.3215080723 27.8488650649 19.1039615676 13.1327662015 10.484502447 62.2005741187 105.979673916 80.8303937801 58.9540811479 42.8774185881 30.3032224848 21.7194153692 15.3590492473 10.918923425 30.5181797288 94.652203295 90.1775533435 64.8865592165 46.9353784499 33.2450542134 23.6027714177 16.0517164824 11.4635326816 11.9796129275 65.1334812433 95.8616108762 73.2534209755 52.2242628596 37.0709092201 26.0760013209 18.1945563572 12.9032281188 8.98409679797 34.8889535832 88.0297110203 78.140950166 56.4459556021 41.1334491243 28.8174661513 20.3075543812 14.168796392 10.0232718456 14.2246163892 64.722777474 89.2538467369 61.9628123737 45.4845675306 32.359403785 22.383810547 16.1644241898 11.0956352318 7.66571262362 38.5103377596 83.3468994498 73.2662485601 49.792105576 35.9493036079 25.6124820316 17.3874665114 12.2920812062 8.57123163949 16.6073240077 64.7399935268 80.389947784 57.6610434783 40.7342199856 28.7335661893 21.0251387294 14.6569586168 10.1591377212 7.1589510164 6.78763276019 5.86468157253 5.56701134626 5.49133808267 5.37298798128 </DataArray>
</PointData>
<CellData/>
<Cells>
<DataArray Name="connectivity" format="ascii" type="Int32">0</DataArray>
<DataArray Name="offsets" format="ascii" type="Int32">0</DataArray>
<DataArray Name="types" format="ascii" type="UInt8">11</DataArray>
</Cells>
</Piece>
</UnstructuredGrid>
</VTKFile>
