<?xml version="1.0" ?>
<VTKFile byte_order="LittleEndian" type="UnstructuredGrid" version="0.1">
<UnstructuredGrid>
<Piece NumberOfCells="0" NumberOfPoints="101">
<Points>
<DataArray NumberOfComponents="3" format="ascii" type="Float32">7.38897638963 7.38897638963 7.38897638963 5.77132020239 5.77132020239 5.77132020239 5.04544671299 5.04544671299 5.04544671299 4.47184588281 4.47184588281 4.47184588281 3.92371775679 3.92371775679 3.92371775679 3.35363140103 3.35363140103 3.35363140103 2.7786957585 2.7786957585 2.7786957585 2.18002797021 2.18002797021 2.18002797021 1.53945370774 1.53945370774 1.53945370774 0.990691530512 0.990691530512 0.990691530512 0.658103278174 0.658103278174 0.658103278174 0.512227955796 0.512227955796 0.512227955796 0.464520603153 0.464520603153 0.464520603153 0.482082300568 0.482082300568 0.482082300568 0.512874390507 0.512874390507 0.512874390507 0.557252220561 0.557252220561 0.557252220561 0.620263528206 0.620263528206 0.620263528206 0.618486556426 0.618486556426 0.618486556426 0.569920719411 0.569920719411 0.569920719411 0.528203415379 0.528203415379 0.528203415379 0.474442860081 0.474442860081 0.474442860081 0.429167910794 0.429167910794 0.429167910794 0.370382213689 0.370382213689 0.370382213689 0.364446460708 0.364446460708 0.364446460708 0.386052851189 0.386052851189 0.386052851189 0.360568856678 0.360568856678 0.360568856678 0.327499608484 0.327499608484 0.327499608484 0.304653762916 0.304653762916 0.304653762916 0.266562368699 0.266562368699 0.266562368699 0.243616388181 0.243616388181 0.243616388181 0.234241987834 0.234241987834 0.234241987834 0.238733976314 0.238733976314 0.238733976314 0.23113662302 0.23113662302 0.23113662302 0.203569714823 0.203569714823 0.203569714823 0.191032421819 0.191032421819 0.191032421819 0.157181374752 0.157181374752 0.157181374752 0.135775657356 0.135775657356 0.135775657356 0.0936635510973 0.0936635510973 0.0936635510973 0.0608049034068 0.0608049034068 0.0608049034068 0.0601520706651 0.0601520706651 0.0601520706651 0.0596380858364 0.0596380858364 0.0596380858364 0.0747229608072 0.0747229608072 0.0747229608072 0.054341072054 0.054341072054 0.054341072054 0.0121784697242 0.0121784697242 0.0121784697242 -0.00520869170094 -0.00520869170094 -0.00520869170094 -0.0494691394762 -0.0494691394762 -0.0494691394762 -0.0687036993204 -0.0687036993204 -0.0687036993204 -0.0822455359212 -0.0822455359212 -0.0822455359212 -0.0617860242802 -0.0617860242802 -0.0617860242802 -0.0821458518403 -0.0821458518403 -0.0821458518403 -0.0658937341643 -0.0658937341643 -0.0658937341643 -0.0825572749134 -0.0825572749134 -0.0825572749134 -0.133299359637 -0.133299359637 -0.133299359637 -0.150552555399 -0.150552555399 -0.150552555399 -0.17571518969 -0.17571518969 -0.17571518969 -0.195488205758 -0.195488205758 -0.195488205758 -0.174502568614 -0.174502568614 -0.174502568614 -0.173752150214 -0.173752150214 -0.173752150214 -0.188091191606 -0.188091191606 -0.188091191606 -0.195579020164 -0.195579020164 -0.195579020164 -0.225315793556 -0.225315793556 -0.225315793556 -0.250572728603 -0.250572728603 -0.250572728603 -0.281156422769 -0.281156422769 -0.281156422769 -0.290546638674 -0.290546638674 -0.290546638674 -0.297703907756 -0.297703907756 -0.297703907756 -0.297277805333 -0.297277805333 -0.297277805333 -0.290386435175 -0.290386435175 -0.290386435175 -0.283325266239 -0.283325266239 -0.283325266239 -0.311900573006 -0.311900573006 -0.311900573006 -0.337971797421 -0.337971797421 -0.337971797421 -0.38660132199 -0.38660132199 -0.38660132199 -0.385509935518 -0.385509935518 -0.385509935518 -0.386507064484 -0.386507064484 -0.386507064484 -0.378320683932 -0.378320683932 -0.378320683932 -0.366758514141 -0.366758514141 -0.366758514141 -0.374610306447 -0.374610306447 -0.374610306447 -0.396404213645 -0.396404213645 -0.396404213645 -0.415081691727 -0.415081691727 -0.415081691727 -0.425756168269 -0.425756168269 -0.425756168269 -0.439223976832 -0.439223976832 -0.439223976832 -0.438398400905 -0.438398400905 -0.438398400905 -0.435594293894 -0.435594293894 -0.435594293894 -0.433305675499 -0.433305675499 -0.433305675499 -0.43407432165 -0.43407432165 -0.43407432165 -0.453346055588 -0.453346055588 -0.453346055588 -0.472959993356 -0.472959993356 -0.472959993356 -0.493102969954 -0.493102969954 -0.493102969954 -0.505407884913 -0.505407884913 -0.505407884913 -0.517716376328 -0.517716376328 -0.517716376328 -0.509278801106 -0.509278801106 -0.509278801106 -0.524325640299 -0.524325640299 -0.524325640299 -0.50331611334 -0.50331611334 -0.50331611334 -0.516607522019 -0.516607522019 -0.516607522019 -0.593591984158 -0.593591984158 -0.593591984158 -0.725631107061 -0.725631107061 -0.725631107061 -0.760026170025 -0.760026170025 -0.760026170025 -0.771008665471 -0.771008665471 -0.771008665471 -0.775536190166 -0.775536190166 -0.775536190166 -0.777092012242 -0.777092012242 -0.777092012242 -0.77770779413 -0.77770779413 -0.77770779413 -0.777760466065 -0.777760466065 -0.777760466065 </DataArray>
</Points>
<PointData>
<DataArray Name="Points" format="ascii" type="Float32">7.38897638963 7.38897638963 7.38897638963 5.77132020239 5.77132020239 5.77132020239 5.04544671299 5.04544671299 5.04544671299 4.47184588281 4.47184588281 4.47184588281 3.92371775679 3.92371775679 3.92371775679 3.35363140103 3.35363140103 3.35363140103 2.7786957585 2.7786957585 2.7786957585 2.18002797021 2.18002797021 2.18002797021 1.53945370774 1.53945370774 1.53945370774 0.990691530512 0.990691530512 0.990691530512 0.658103278174 0.658103278174 0.658103278174 0.512227955796 0.512227955796 0.512227955796 0.464520603153 0.464520603153 0.464520603153 0.482082300568 0.482082300568 0.482082300568 0.512874390507 0.512874390507 0.512874390507 0.557252220561 0.557252220561 0.557252220561 0.620263528206 0.620263528206 0.620263528206 0.618486556426 0.618486556426 0.618486556426 0.569920719411 0.569920719411 0.569920719411 0.528203415379 0.528203415379 0.528203415379 0.474442860081 0.474442860081 0.474442860081 0.429167910794 0.429167910794 0.429167910794 0.370382213689 0.370382213689 0.370382213689 0.364446460708 0.364446460708 0.364446460708 0.386052851189 0.386052851189 0.386052851189 0.360568856678 0.360568856678 0.360568856678 0.327499608484 0.327499608484 0.327499608484 0.304653762916 0.304653762916 0.304653762916 0.266562368699 0.266562368699 0.266562368699 0.243616388181 0.243616388181 0.243616388181 0.234241987834 0.234241987834 0.234241987834 0.238733976314 0.238733976314 0.238733976314 0.23113662302 0.23113662302 0.23113662302 0.203569714823 0.203569714823 0.203569714823 0.191032421819 0.191032421819 0.191032421819 0.157181374752 0.157181374752 0.157181374752 0.135775657356 0.135775657356 0.135775657356 0.0936635510973 0.0936635510973 0.0936635510973 0.0608049034068 0.0608049034068 0.0608049034068 0.0601520706651 0.0601520706651 0.0601520706651 0.0596380858364 0.0596380858364 0.0596380858364 0.0747229608072 0.0747229608072 0.0747229608072 0.054341072054 0.054341072054 0.054341072054 0.0121784697242 0.0121784697242 0.0121784697242 -0.00520869170094 -0.00520869170094 -0.00520869170094 -0.0494691394762 -0.0494691394762 -0.0494691394762 -0.0687036993204 -0.0687036993204 -0.0687036993204 -0.0822455359212 -0.0822455359212 -0.0822455359212 -0.0617860242802 -0.0617860242802 -0.0617860242802 -0.0821458518403 -0.0821458518403 -0.0821458518403 -0.0658937341643 -0.0658937341643 -0.0658937341643 -0.0825572749134 -0.0825572749134 -0.0825572749134 -0.133299359637 -0.133299359637 -0.133299359637 -0.150552555399 -0.150552555399 -0.150552555399 -0.17571518969 -0.17571518969 -0.17571518969 -0.195488205758 -0.195488205758 -0.195488205758 -0.174502568614 -0.174502568614 -0.174502568614 -0.173752150214 -0.173752150214 -0.173752150214 -0.188091191606 -0.188091191606 -0.188091191606 -0.195579020164 -0.195579020164 -0.195579020164 -0.225315793556 -0.225315793556 -0.225315793556 -0.250572728603 -0.250572728603 -0.250572728603 -0.281156422769 -0.281156422769 -0.281156422769 -0.290546638674 -0.290546638674 -0.290546638674 -0.297703907756 -0.297703907756 -0.297703907756 -0.297277805333 -0.297277805333 -0.297277805333 -0.290386435175 -0.290386435175 -0.290386435175 -0.283325266239 -0.283325266239 -0.283325266239 -0.311900573006 -0.311900573006 -0.311900573006 -0.337971797421 -0.337971797421 -0.337971797421 -0.38660132199 -0.38660132199 -0.38660132199 -0.385509935518 -0.385509935518 -0.385509935518 -0.386507064484 -0.386507064484 -0.386507064484 -0.378320683932 -0.378320683932 -0.378320683932 -0.366758514141 -0.366758514141 -0.366758514141 -0.374610306447 -0.374610306447 -0.374610306447 -0.396404213645 -0.396404213645 -0.396404213645 -0.415081691727 -0.415081691727 -0.415081691727 -0.425756168269 -0.425756168269 -0.425756168269 -0.439223976832 -0.439223976832 -0.439223976832 -0.438398400905 -0.438398400905 -0.438398400905 -0.435594293894 -0.435594293894 -0.435594293894 -0.433305675499 -0.433305675499 -0.433305675499 -0.43407432165 -0.43407432165 -0.43407432165 -0.453346055588 -0.453346055588 -0.453346055588 -0.472959993356 -0.472959993356 -0.472959993356 -0.493102969954 -0.493102969954 -0.493102969954 -0.505407884913 -0.505407884913 -0.505407884913 -0.517716376328 -0.517716376328 -0.517716376328 -0.509278801106 -0.509278801106 -0.509278801106 -0.524325640299 -0.524325640299 -0.524325640299 -0.50331611334 -0.50331611334 -0.50331611334 -0.516607522019 -0.516607522019 -0.516607522019 -0.593591984158 -0.593591984158 -0.593591984158 -0.725631107061 -0.725631107061 -0.725631107061 -0.760026170025 -0.760026170025 -0.760026170025 -0.771008665471 -0.771008665471 -0.771008665471 -0.775536190166 -0.775536190166 -0.775536190166 -0.777092012242 -0.777092012242 -0.777092012242 -0.77770779413 -0.77770779413 -0.77770779413 -0.777760466065 -0.777760466065 -0.777760466065 </DataArray>
<DataArray Name="CFP -1 stddev" format="ascii" type="Float32">7.38897638963 5.77132020239 5.04544671299 4.47184588281 3.92371775679 3.35363140103 2.7786957585 2.18002797021 1.53945370774 0.990691530512 0.658103278174 0.512227955796 0.464520603153 0.482082300568 0.512874390507 0.557252220561 0.620263528206 0.618486556426 0.569920719411 0.528203415379 0.474442860081 0.429167910794 0.370382213689 0.364446460708 0.386052851189 0.360568856678 0.327499608484 0.304653762916 0.266562368699 0.243616388181 0.234241987834 0.238733976314 0.23113662302 0.203569714823 0.191032421819 0.157181374752 0.135775657356 0.0936635510973 0.0608049034068 0.0601520706651 0.0596380858364 0.0747229608072 0.054341072054 0.0121784697242 -0.00520869170094 -0.0494691394762 -0.0687036993204 -0.0822455359212 -0.0617860242802 -0.0821458518403 -0.0658937341643 -0.0825572749134 -0.133299359637 -0.150552555399 -0.17571518969 -0.195488205758 -0.174502568614 -0.173752150214 -0.188091191606 -0.195579020164 -0.225315793556 -0.250572728603 -0.281156422769 -0.290546638674 -0.297703907756 -0.297277805333 -0.290386435175 -0.283325266239 -0.311900573006 -0.337971797421 -0.38660132199 -0.385509935518 -0.386507064484 -0.378320683932 -0.366758514141 -0.374610306447 -0.396404213645 -0.415081691727 -0.425756168269 -0.439223976832 -0.438398400905 -0.435594293894 -0.433305675499 -0.43407432165 -0.453346055588 -0.472959993356 -0.493102969954 -0.505407884913 -0.517716376328 -0.509278801106 -0.524325640299 -0.50331611334 -0.516607522019 -0.593591984158 -0.725631107061 -0.760026170025 -0.771008665471 -0.775536190166 -0.777092012242 -0.77770779413 -0.777760466065 </DataArray>
<DataArray Name="1 stddev of CFP" format="ascii" type="Float32">1.49750018199 1.94029608539 2.24272828701 2.46147911719 2.60533224321 2.71074359897 2.7294292415 2.71067043254 2.58114215476 2.35987056042 2.14691786735 1.97204514544 1.84881289761 1.79910721201 1.81277648444 1.84323315801 1.87393138705 1.89850471861 1.92531446977 1.93240949102 1.9260075012 1.9180436917 1.90565590748 1.88285802632 1.8751777446 1.88806833913 1.89835881902 1.91691705413 1.93423361349 1.94646842845 1.93848637611 1.93867342224 1.93329696723 1.92664586237 1.91186376647 1.91010100915 1.9187720229 1.93761885471 1.95093230132 1.95741907668 1.95804784919 1.95388815653 1.94498434619 1.94202335665 1.94316725108 1.92222619046 1.9302168014 1.93617247547 1.92110568877 1.93588560021 1.93072313049 1.93288226824 1.9343455149 1.92592787407 1.931613211 1.93016326015 1.91689303117 1.91727940505 1.92349236621 1.92051847652 1.9135754685 1.92485721219 1.91563157149 1.91916225378 1.91821210914 1.92786446213 1.93999255407 1.93089347773 1.92315210931 1.91137172168 1.90845288651 1.90573811415 1.91040263726 1.90866418209 1.90980107514 1.92213284948 1.91115277929 1.90428039419 1.90167316581 1.89382314492 1.87309949996 1.87559336075 1.87746110841 1.87233010131 1.86743953838 1.85212905769 1.84711129956 1.83599505573 1.82257427454 1.81984275937 1.82501497853 1.83730555387 1.84082375811 1.79707659916 1.66268957765 1.59966059131 1.57305955673 1.56056367383 1.55600669603 1.5541615902 1.55400262989 </DataArray>
<DataArray Name="CFP coefficient of variation" format="ascii" type="Float32">0.168514502899 0.251606928169 0.307721519724 0.355021453227 0.399036956863 0.44699471899 0.495527832339 0.554250172331 0.626400219989 0.704320796444 0.765383844174 0.793811736905 0.799198601067 0.788670648401 0.779470600668 0.767858523307 0.751317138684 0.754275446816 0.771596392243 0.785336647627 0.802352563613 0.817158406026 0.837268888318 0.837829514064 0.829273117077 0.83965005233 0.852865930538 0.862865608164 0.878879109714 0.888763948167 0.892189934222 0.890358608833 0.893211496966 0.904437035856 0.909157464413 0.92396714838 0.933914574648 0.953889448937 0.96977492723 0.970185898651 0.970442334557 0.963165458294 0.972820296507 0.993768059389 1.00268772089 1.02641513989 1.0369074487 1.04436287869 1.03323044738 1.04431358388 1.03533499327 1.04461771592 1.07401218411 1.08480041027 1.10007140936 1.11269442381 1.10015124185 1.09965554007 1.10838484747 1.11338312162 1.13346038936 1.14965958955 1.1720163338 1.17840099037 1.18371021356 1.18231340487 1.17603380095 1.17196572759 1.19357658688 1.2148034916 1.25403352798 1.25358688974 1.25363093862 1.24721291944 1.23768528711 1.24207098509 1.26169637829 1.27872821205 1.2884689105 1.30195533345 1.30556775986 1.30249623345 1.30004088592 1.30180606801 1.32059129124 1.34293112105 1.36418015988 1.37983823683 1.39676073313 1.38859515241 1.40311366049 1.37730142237 1.39012323512 1.49322772951 1.77437121571 1.90518700849 1.96129643876 1.98790960355 1.99765998564 2.00161503243 2.00195596466 </DataArray>
<DataArray Name="time" format="ascii" type="Float32">0.0 10.7892491588 21.5784983176 32.3677474764 43.1569966352 53.946245794 64.7354949527 75.5247441115 86.3139932703 97.1032424291 107.892491588 118.681740747 129.470989905 140.260239064 151.049488223 161.838737382 172.627986541 183.417235699 194.206484858 204.995734017 215.784983176 226.574232335 237.363481493 248.152730652 258.941979811 269.73122897 280.520478129 291.309727287 302.098976446 312.888225605 323.677474764 334.466723923 345.255973081 356.04522224 366.834471399 377.623720558 388.412969716 399.202218875 409.991468034 420.780717193 431.569966352 442.35921551 453.148464669 463.937713828 474.726962987 485.516212146 496.305461304 507.094710463 517.883959622 528.673208781 539.46245794 550.251707098 561.040956257 571.830205416 582.619454575 593.408703734 604.197952892 614.987202051 625.77645121 636.565700369 647.354949527 658.144198686 668.933447845 679.722697004 690.511946163 701.301195321 712.09044448 722.879693639 733.668942798 744.458191957 755.247441115 766.036690274 776.825939433 787.615188592 798.404437751 809.193686909 819.982936068 830.772185227 841.561434386 852.350683544 863.139932703 873.929181862 884.718431021 895.50768018 906.296929338 917.086178497 927.875427656 938.664676815 949.453925974 960.243175132 971.032424291 981.82167345 992.610922609 1003.40017177 1014.18942093 1024.97867009 1035.76791924 1046.5571684 1057.34641756 1068.13566672 1078.92491588 </DataArray>
<DataArray Name="CFP variance" format="ascii" type="Float32">2.24250679506 3.76474889898 5.02983016937 6.05887944438 6.7877560975 7.34813085938 7.44978398437 7.34773419387 6.66229482307 5.56898906195 4.60925632915 3.88896205565 3.41810913038 3.23678676032 3.28615858254 3.39750847479 3.51161884336 3.60432016659 3.70683580752 3.73420644096 3.70950489467 3.67889160328 3.63152443772 3.54515434728 3.51629157383 3.56480205324 3.60376620575 3.67457099242 3.74125967154 3.78873934294 3.75772943036 3.75845463809 3.7376371635 3.71196427898 3.65522306153 3.64848586517 3.68168607586 3.75436682613 3.80613684432 3.83148944177 3.83395137972 3.81767892822 3.78296410691 3.77145471779 3.77589896566 3.69495352731 3.7257369004 3.74876385476 3.69064706743 3.74765305712 3.72769180661 3.73603386286 3.74169257102 3.7091981761 3.73112959691 3.72553021084 3.67447889295 3.67596031705 3.69982288287 3.68839121864 3.66177107363 3.70507528731 3.6696443177 3.68318375634 3.67953769565 3.71666138434 3.76357110986 3.72834962236 3.69851403554 3.65334185843 3.64219242003 3.63183775971 3.64963823647 3.64299895998 3.6473401466 3.69459469106 3.65250494578 3.6262838197 3.61636082956 3.58656610422 3.50850173675 3.5178504549 3.52486021361 3.50562000827 3.48733042952 3.43038204634 3.41182015297 3.37087784467 3.32177698623 3.31182766882 3.33067967187 3.3756916983 3.38863210843 3.22948430325 2.76453663163 2.55891400738 2.47451636902 2.43535898008 2.42115683808 2.41541824844 2.41492417371 </DataArray>
<DataArray Name="CFP median" format="ascii" type="Float32">9.0 8.0 7.0 7.0 6.0 6.0 5.0 5.0 4.0 3.0 2.0 2.0 2.0 2.0 2.0 2.0 2.0 2.0 2.0 2.0 2.0 2.0 2.0 2.0 2.0 2.0 2.0 2.0 2.0 2.0 2.0 2.0 2.0 2.0 2.0 2.0 2.0 2.0 2.0 2.0 2.0 2.0 2.0 2.0 2.0 1.0 1.0 1.0 1.0 1.0 1.0 1.0 1.0 1.0 1.0 1.0 1.0 1.0 1.0 1.0 1.0 1.0 1.0 1.0 1.0 1.0 1.0 1.0 1.0 1.0 1.0 1.0 1.0 1.0 1.0 1.0 1.0 1.0 1.0 1.0 0.0 1.0 1.0 1.0 0.0 0.0 0.0 0.0 0.0 0.0 0.0 0.0 0.0 0.0 0.0 0.0 0.0 0.0 0.0 0.0 0.0 </DataArray>
<DataArray Name="CFP +1 stddev" format="ascii" type="Float32">10.3839767536 9.65191237317 9.53090328701 9.39480411719 9.13438224321 8.77511859897 8.2375542415 7.6013688353 6.70173801726 5.71043265136 4.95193901288 4.45631824667 4.16214639838 4.0802967246 4.13842735939 4.24371853658 4.3681263023 4.41549599365 4.42054965896 4.39302239741 4.32645786248 4.2652552942 4.18169402865 4.13016251335 4.13640834038 4.13670553495 4.12421724652 4.13848787118 4.13502959567 4.13655324508 4.11121474005 4.11608082079 4.09773055748 4.05686143956 4.01475995475 3.97738339306 3.97331970315 3.96890126052 3.96266950604 3.97499022403 3.97573378422 3.98249927386 3.94430976443 3.89622518303 3.88112581045 3.79498324145 3.79172990348 3.79009941502 3.78042535326 3.78962534859 3.79555252682 3.78320726156 3.73539167017 3.70130319273 3.68751123231 3.66483831455 3.65928349373 3.6608066599 3.65889354082 3.64545793287 3.60183514344 3.59914169577 3.55010672022 3.54777786889 3.53872031052 3.55845111893 3.58959867297 3.57846168923 3.53440364561 3.48477164593 3.43030445103 3.42596629278 3.43429821005 3.43900768024 3.45284363614 3.46965539252 3.42590134493 3.39347909665 3.37759016335 3.348422313 3.30780059902 3.31559242761 3.32161654133 3.31058588097 3.28153302118 3.23129812202 3.20111962917 3.16658222655 3.12743217276 3.13040671763 3.12570431677 3.17129499441 3.16503999421 3.00056121416 2.59974804824 2.43929501259 2.37511044799 2.34559115749 2.33492137981 2.33061538627 2.33024479372 </DataArray>
<DataArray Name="CFP mean" format="ascii" type="Float32">8.88647657162 7.71161628778 7.288175 6.933325 6.52905 6.064375 5.508125 4.89069840276 4.1205958625 3.35056209093 2.80502114553 2.48427310123 2.31333350077 2.28118951258 2.32565087495 2.40048537857 2.49419491525 2.51699127504 2.49523518918 2.46061290639 2.40045036128 2.3472116025 2.27603812117 2.24730448703 2.26123059579 2.24863719581 2.2258584275 2.22157081705 2.20079598219 2.19008481663 2.17272836394 2.17740739855 2.16443359025 2.13021557719 2.10289618829 2.06728238391 2.05454768025 2.03128240581 2.01173720472 2.01757114735 2.01768593503 2.02861111733 1.99932541824 1.95420182638 1.93795855938 1.87275705099 1.86151310208 1.85392693955 1.85931966449 1.85373974837 1.86482939633 1.85032499332 1.80104615526 1.77537531867 1.75589802131 1.73467505439 1.74239046256 1.74352725484 1.73540117461 1.72493945635 1.68825967494 1.67428448358 1.63447514872 1.62861561511 1.62050820138 1.6305866568 1.6496061189 1.6475682115 1.6112515363 1.57339992426 1.52185156452 1.52022817863 1.52389557278 1.53034349815 1.543042561 1.54752254304 1.51474856564 1.48919870246 1.47591699754 1.45459916808 1.43470109906 1.43999906686 1.44415543291 1.43825577966 1.4140934828 1.37916906433 1.35400832961 1.33058717082 1.30485789822 1.31056395826 1.30068933824 1.33398944053 1.32421623609 1.203484615 0.937058470591 0.839634421283 0.80205089126 0.785027483664 0.778914683785 0.776453796068 0.776242163826 </DataArray>
</PointData>
<CellData/>
<Cells>
<DataArray Name="connectivity" format="ascii" type="Int32">0</DataArray>
<DataArray Name="offsets" format="ascii" type="Int32">0</DataArray>
<DataArray Name="types" format="ascii" type="UInt8">11</DataArray>
</Cells>
</Piece>
</UnstructuredGrid>
</VTKFile>
