<?xml version="1.0" ?>
<VTKFile byte_order="LittleEndian" type="UnstructuredGrid" version="0.1">
<UnstructuredGrid>
<Piece NumberOfCells="0" NumberOfPoints="201">
<Points>
<DataArray NumberOfComponents="3" format="ascii" type="Float32">50.0 50.0 50.0 50.0 50.0 50.0 50.0 50.0 50.0 0.0 0.0 0.0 0.0 0.0 0.0 0.0 0.0 0.0 0.0 0.0 0.0 0.0 0.0 0.0 0.0 0.0 0.0 0.0 0.0 0.0 0.0 0.0 0.0 0.0 0.0 0.0 0.0 0.0 0.0 0.0 0.0 0.0 0.0 0.0 0.0 0.0 0.0 0.0 0.0 0.0 0.0 0.0 0.0 0.0 -9.19930139845 -9.19930139845 -9.19930139845 50.0 50.0 50.0 50.0 50.0 50.0 -10.1696326312 -10.1696326312 -10.1696326312 0.0 0.0 0.0 0.0 0.0 0.0 0.0 0.0 0.0 0.0 0.0 0.0 0.0 0.0 0.0 0.0 0.0 0.0 0.0 0.0 0.0 0.0 0.0 0.0 0.0 0.0 0.0 0.0 0.0 0.0 0.0 0.0 0.0 0.0 0.0 0.0 0.0 0.0 0.0 0.0 0.0 0.0 0.0 0.0 0.0 43.195043378 43.195043378 43.195043378 50.0 50.0 50.0 43.1070794931 43.1070794931 43.1070794931 0.0 0.0 0.0 0.0 0.0 0.0 0.0 0.0 0.0 0.0 0.0 0.0 0.0 0.0 0.0 0.0 0.0 0.0 0.0 0.0 0.0 0.0 0.0 0.0 0.0 0.0 0.0 0.0 0.0 0.0 0.0 0.0 0.0 0.0 0.0 0.0 0.0 0.0 0.0 0.0 0.0 0.0 0.0 0.0 0.0 -1.0381803883 -1.0381803883 -1.0381803883 50.0 50.0 50.0 50.0 50.0 50.0 -8.58979668768 -8.58979668768 -8.58979668768 0.0 0.0 0.0 0.0 0.0 0.0 0.0 0.0 0.0 0.0 0.0 0.0 0.0 0.0 0.0 0.0 0.0 0.0 0.0 0.0 0.0 0.0 0.0 0.0 0.0 0.0 0.0 0.0 0.0 0.0 0.0 0.0 0.0 0.0 0.0 0.0 0.0 0.0 0.0 0.0 0.0 0.0 0.759106757836 0.759106757836 0.759106757836 50.0 50.0 50.0 50.0 50.0 50.0 -10.3320838785 -10.3320838785 -10.3320838785 0.0 0.0 0.0 0.0 0.0 0.0 0.0 0.0 0.0 0.0 0.0 0.0 0.0 0.0 0.0 0.0 0.0 0.0 0.0 0.0 0.0 0.0 0.0 0.0 0.0 0.0 0.0 0.0 0.0 0.0 0.0 0.0 0.0 0.0 0.0 0.0 0.0 0.0 0.0 0.0 0.0 0.0 -6.22316743341 -6.22316743341 -6.22316743341 50.0 50.0 50.0 50.0 50.0 50.0 31.273033221 31.273033221 31.273033221 0.0 0.0 0.0 0.0 0.0 0.0 0.0 0.0 0.0 0.0 0.0 0.0 0.0 0.0 0.0 0.0 0.0 0.0 0.0 0.0 0.0 0.0 0.0 0.0 0.0 0.0 0.0 0.0 0.0 0.0 0.0 0.0 0.0 0.0 0.0 0.0 0.0 0.0 0.0 0.0 0.0 0.0 0.0 0.0 0.0 6.50892741821 6.50892741821 6.50892741821 50.0 50.0 50.0 41.4026405074 41.4026405074 41.4026405074 0.0 0.0 0.0 0.0 0.0 0.0 0.0 0.0 0.0 0.0 0.0 0.0 0.0 0.0 0.0 0.0 0.0 0.0 0.0 0.0 0.0 0.0 0.0 0.0 0.0 0.0 0.0 0.0 0.0 0.0 0.0 0.0 0.0 0.0 0.0 0.0 0.0 0.0 0.0 0.0 0.0 0.0 0.0 0.0 0.0 9.6386392811 9.6386392811 9.6386392811 50.0 50.0 50.0 50.0 50.0 50.0 -10.3461887797 -10.3461887797 -10.3461887797 0.0 0.0 0.0 0.0 0.0 0.0 0.0 0.0 0.0 0.0 0.0 0.0 0.0 0.0 0.0 0.0 0.0 0.0 0.0 0.0 0.0 0.0 0.0 0.0 0.0 0.0 0.0 0.0 0.0 0.0 0.0 0.0 0.0 0.0 0.0 0.0 0.0 0.0 0.0 0.0 0.0 0.0 -9.91409553527 -9.91409553527 -9.91409553527 50.0 50.0 50.0 50.0 50.0 50.0 14.237788386 14.237788386 14.237788386 0.0 0.0 0.0 0.0 0.0 0.0 0.0 0.0 0.0 0.0 0.0 0.0 0.0 0.0 0.0 0.0 0.0 0.0 0.0 0.0 0.0 0.0 0.0 0.0 0.0 0.0 0.0 0.0 0.0 0.0 0.0 0.0 0.0 0.0 0.0 0.0 0.0 0.0 0.0 0.0 0.0 0.0 0.0 0.0 0.0 23.2949760819 23.2949760819 23.2949760819 50.0 50.0 50.0 21.5584919352 21.5584919352 21.5584919352 0.0 0.0 0.0 0.0 0.0 0.0 0.0 0.0 0.0 0.0 0.0 0.0 0.0 0.0 0.0 0.0 0.0 0.0 0.0 0.0 0.0 0.0 0.0 0.0 0.0 0.0 0.0 0.0 0.0 0.0 0.0 0.0 0.0 0.0 0.0 0.0 0.0 0.0 0.0 0.0 0.0 0.0 0.0 0.0 0.0 -9.48391928485 -9.48391928485 -9.48391928485 -2.83452628185 -2.83452628185 -2.83452628185 1.47555836661 1.47555836661 1.47555836661 -0.262322149708 -0.262322149708 -0.262322149708 -1.90321062245 -1.90321062245 -1.90321062245 -2.83625434514 -2.83625434514 -2.83625434514 -3.35733830878 -3.35733830878 -3.35733830878 -3.68400409883 -3.68400409883 -3.68400409883 -3.87706690412 -3.87706690412 -3.87706690412 -4.00377468376 -4.00377468376 -4.00377468376 -4.05249694221 -4.05249694221 -4.05249694221 -4.11116848958 -4.11116848958 -4.11116848958 -4.1486654853 -4.1486654853 -4.1486654853 -4.16579738876 -4.16579738876 -4.16579738876 -4.19498709729 -4.19498709729 -4.19498709729 -4.19498709729 -4.19498709729 -4.19498709729 -4.19498709729 -4.19498709729 -4.19498709729 -4.20707172718 -4.20707172718 -4.20707172718 </DataArray>
</Points>
<PointData>
<DataArray Name="Points" format="ascii" type="Float32">50.0 50.0 50.0 50.0 50.0 50.0 50.0 50.0 50.0 0.0 0.0 0.0 0.0 0.0 0.0 0.0 0.0 0.0 0.0 0.0 0.0 0.0 0.0 0.0 0.0 0.0 0.0 0.0 0.0 0.0 0.0 0.0 0.0 0.0 0.0 0.0 0.0 0.0 0.0 0.0 0.0 0.0 0.0 0.0 0.0 0.0 0.0 0.0 0.0 0.0 0.0 0.0 0.0 0.0 -9.19930139845 -9.19930139845 -9.19930139845 50.0 50.0 50.0 50.0 50.0 50.0 -10.1696326312 -10.1696326312 -10.1696326312 0.0 0.0 0.0 0.0 0.0 0.0 0.0 0.0 0.0 0.0 0.0 0.0 0.0 0.0 0.0 0.0 0.0 0.0 0.0 0.0 0.0 0.0 0.0 0.0 0.0 0.0 0.0 0.0 0.0 0.0 0.0 0.0 0.0 0.0 0.0 0.0 0.0 0.0 0.0 0.0 0.0 0.0 0.0 0.0 0.0 43.195043378 43.195043378 43.195043378 50.0 50.0 50.0 43.1070794931 43.1070794931 43.1070794931 0.0 0.0 0.0 0.0 0.0 0.0 0.0 0.0 0.0 0.0 0.0 0.0 0.0 0.0 0.0 0.0 0.0 0.0 0.0 0.0 0.0 0.0 0.0 0.0 0.0 0.0 0.0 0.0 0.0 0.0 0.0 0.0 0.0 0.0 0.0 0.0 0.0 0.0 0.0 0.0 0.0 0.0 0.0 0.0 0.0 -1.0381803883 -1.0381803883 -1.0381803883 50.0 50.0 50.0 50.0 50.0 50.0 -8.58979668768 -8.58979668768 -8.58979668768 0.0 0.0 0.0 0.0 0.0 0.0 0.0 0.0 0.0 0.0 0.0 0.0 0.0 0.0 0.0 0.0 0.0 0.0 0.0 0.0 0.0 0.0 0.0 0.0 0.0 0.0 0.0 0.0 0.0 0.0 0.0 0.0 0.0 0.0 0.0 0.0 0.0 0.0 0.0 0.0 0.0 0.0 0.759106757836 0.759106757836 0.759106757836 50.0 50.0 50.0 50.0 50.0 50.0 -10.3320838785 -10.3320838785 -10.3320838785 0.0 0.0 0.0 0.0 0.0 0.0 0.0 0.0 0.0 0.0 0.0 0.0 0.0 0.0 0.0 0.0 0.0 0.0 0.0 0.0 0.0 0.0 0.0 0.0 0.0 0.0 0.0 0.0 0.0 0.0 0.0 0.0 0.0 0.0 0.0 0.0 0.0 0.0 0.0 0.0 0.0 0.0 -6.22316743341 -6.22316743341 -6.22316743341 50.0 50.0 50.0 50.0 50.0 50.0 31.273033221 31.273033221 31.273033221 0.0 0.0 0.0 0.0 0.0 0.0 0.0 0.0 0.0 0.0 0.0 0.0 0.0 0.0 0.0 0.0 0.0 0.0 0.0 0.0 0.0 0.0 0.0 0.0 0.0 0.0 0.0 0.0 0.0 0.0 0.0 0.0 0.0 0.0 0.0 0.0 0.0 0.0 0.0 0.0 0.0 0.0 0.0 0.0 0.0 6.50892741821 6.50892741821 6.50892741821 50.0 50.0 50.0 41.4026405074 41.4026405074 41.4026405074 0.0 0.0 0.0 0.0 0.0 0.0 0.0 0.0 0.0 0.0 0.0 0.0 0.0 0.0 0.0 0.0 0.0 0.0 0.0 0.0 0.0 0.0 0.0 0.0 0.0 0.0 0.0 0.0 0.0 0.0 0.0 0.0 0.0 0.0 0.0 0.0 0.0 0.0 0.0 0.0 0.0 0.0 0.0 0.0 0.0 9.6386392811 9.6386392811 9.6386392811 50.0 50.0 50.0 50.0 50.0 50.0 -10.3461887797 -10.3461887797 -10.3461887797 0.0 0.0 0.0 0.0 0.0 0.0 0.0 0.0 0.0 0.0 0.0 0.0 0.0 0.0 0.0 0.0 0.0 0.0 0.0 0.0 0.0 0.0 0.0 0.0 0.0 0.0 0.0 0.0 0.0 0.0 0.0 0.0 0.0 0.0 0.0 0.0 0.0 0.0 0.0 0.0 0.0 0.0 -9.91409553527 -9.91409553527 -9.91409553527 50.0 50.0 50.0 50.0 50.0 50.0 14.237788386 14.237788386 14.237788386 0.0 0.0 0.0 0.0 0.0 0.0 0.0 0.0 0.0 0.0 0.0 0.0 0.0 0.0 0.0 0.0 0.0 0.0 0.0 0.0 0.0 0.0 0.0 0.0 0.0 0.0 0.0 0.0 0.0 0.0 0.0 0.0 0.0 0.0 0.0 0.0 0.0 0.0 0.0 0.0 0.0 0.0 0.0 0.0 0.0 23.2949760819 23.2949760819 23.2949760819 50.0 50.0 50.0 21.5584919352 21.5584919352 21.5584919352 0.0 0.0 0.0 0.0 0.0 0.0 0.0 0.0 0.0 0.0 0.0 0.0 0.0 0.0 0.0 0.0 0.0 0.0 0.0 0.0 0.0 0.0 0.0 0.0 0.0 0.0 0.0 0.0 0.0 0.0 0.0 0.0 0.0 0.0 0.0 0.0 0.0 0.0 0.0 0.0 0.0 0.0 0.0 0.0 0.0 -9.48391928485 -9.48391928485 -9.48391928485 -2.83452628185 -2.83452628185 -2.83452628185 1.47555836661 1.47555836661 1.47555836661 -0.262322149708 -0.262322149708 -0.262322149708 -1.90321062245 -1.90321062245 -1.90321062245 -2.83625434514 -2.83625434514 -2.83625434514 -3.35733830878 -3.35733830878 -3.35733830878 -3.68400409883 -3.68400409883 -3.68400409883 -3.87706690412 -3.87706690412 -3.87706690412 -4.00377468376 -4.00377468376 -4.00377468376 -4.05249694221 -4.05249694221 -4.05249694221 -4.11116848958 -4.11116848958 -4.11116848958 -4.1486654853 -4.1486654853 -4.1486654853 -4.16579738876 -4.16579738876 -4.16579738876 -4.19498709729 -4.19498709729 -4.19498709729 -4.19498709729 -4.19498709729 -4.19498709729 -4.19498709729 -4.19498709729 -4.19498709729 -4.20707172718 -4.20707172718 -4.20707172718 </DataArray>
<DataArray Name="function -1 stddev" format="ascii" type="Float32">50.0 50.0 50.0 0.0 0.0 0.0 0.0 0.0 0.0 0.0 0.0 0.0 0.0 0.0 0.0 0.0 0.0 0.0 -9.19930139845 50.0 50.0 -10.1696326312 0.0 0.0 0.0 0.0 0.0 0.0 0.0 0.0 0.0 0.0 0.0 0.0 0.0 0.0 0.0 43.195043378 50.0 43.1070794931 0.0 0.0 0.0 0.0 0.0 0.0 0.0 0.0 0.0 0.0 0.0 0.0 0.0 0.0 0.0 -1.0381803883 50.0 50.0 -8.58979668768 0.0 0.0 0.0 0.0 0.0 0.0 0.0 0.0 0.0 0.0 0.0 0.0 0.0 0.0 0.759106757836 50.0 50.0 -10.3320838785 0.0 0.0 0.0 0.0 0.0 0.0 0.0 0.0 0.0 0.0 0.0 0.0 0.0 0.0 -6.22316743341 50.0 50.0 31.273033221 0.0 0.0 0.0 0.0 0.0 0.0 0.0 0.0 0.0 0.0 0.0 0.0 0.0 0.0 0.0 6.50892741821 50.0 41.4026405074 0.0 0.0 0.0 0.0 0.0 0.0 0.0 0.0 0.0 0.0 0.0 0.0 0.0 0.0 0.0 9.6386392811 50.0 50.0 -10.3461887797 0.0 0.0 0.0 0.0 0.0 0.0 0.0 0.0 0.0 0.0 0.0 0.0 0.0 0.0 -9.91409553527 50.0 50.0 14.237788386 0.0 0.0 0.0 0.0 0.0 0.0 0.0 0.0 0.0 0.0 0.0 0.0 0.0 0.0 0.0 23.2949760819 50.0 21.5584919352 0.0 0.0 0.0 0.0 0.0 0.0 0.0 0.0 0.0 0.0 0.0 0.0 0.0 0.0 0.0 -9.48391928485 -2.83452628185 1.47555836661 -0.262322149708 -1.90321062245 -2.83625434514 -3.35733830878 -3.68400409883 -3.87706690412 -4.00377468376 -4.05249694221 -4.11116848958 -4.1486654853 -4.16579738876 -4.19498709729 -4.19498709729 -4.19498709729 -4.20707172718 </DataArray>
<DataArray Name="function +1 stddev" format="ascii" type="Float32">50.0 50.0 50.0 0.0 0.0 0.0 0.0 0.0 0.0 0.0 0.0 0.0 0.0 0.0 0.0 0.0 0.0 0.0 16.0329612548 50.0 50.0 28.6189695472 0.0 0.0 0.0 0.0 0.0 0.0 0.0 0.0 0.0 0.0 0.0 0.0 0.0 0.0 0.0 55.314029697 50.0 55.3666539518 0.0 0.0 0.0 0.0 0.0 0.0 0.0 0.0 0.0 0.0 0.0 0.0 0.0 0.0 0.0 48.9167966515 50.0 50.0 36.0329306388 0.0 0.0 0.0 0.0 0.0 0.0 0.0 0.0 0.0 0.0 0.0 0.0 0.0 0.0 50.7367265755 50.0 50.0 23.7178733272 0.0 0.0 0.0 0.0 0.0 0.0 0.0 0.0 0.0 0.0 0.0 0.0 0.0 0.0 8.41344473903 50.0 50.0 59.7943825094 0.0 0.0 0.0 0.0 0.0 0.0 0.0 0.0 0.0 0.0 0.0 0.0 0.0 0.0 0.0 55.1343696595 50.0 56.3201753569 0.0 0.0 0.0 0.0 0.0 0.0 0.0 0.0 0.0 0.0 0.0 0.0 0.0 0.0 0.0 56.8438156769 50.0 50.0 25.8043250259 0.0 0.0 0.0 0.0 0.0 0.0 0.0 0.0 0.0 0.0 0.0 0.0 0.0 0.0 19.4317028676 50.0 50.0 58.677511802 0.0 0.0 0.0 0.0 0.0 0.0 0.0 0.0 0.0 0.0 0.0 0.0 0.0 0.0 0.0 60.3142024324 50.0 60.1874412574 0.0 0.0 0.0 0.0 0.0 0.0 0.0 0.0 0.0 0.0 0.0 0.0 0.0 0.0 0.0 32.8012377708 46.7999804281 51.3931931724 49.7348959894 47.9394258473 46.7977738321 46.1154295254 45.6694922255 45.3988972009 45.2183346024 45.1482610024 45.0633962522 45.0088805391 44.9839000868 44.9412318674 44.9412318674 44.9412318674 44.9235278283 </DataArray>
<DataArray Name="function coefficient of variation" format="ascii" type="Float32">0.0 0.0 0.0 0.0 0.0 0.0 0.0 0.0 0.0 0.0 0.0 0.0 0.0 0.0 0.0 0.0 0.0 0.0 0.0 0.0 0.0 0.0 0.0 0.0 0.0 0.0 0.0 0.0 0.0 0.0 0.0 0.0 0.0 0.0 0.0 0.0 0.0 0.0 0.0 0.0 0.0 0.0 0.0 0.0 0.0 0.0 0.0 0.0 0.0 0.0 0.0 0.0 0.0 0.0 0.0 0.0 0.0 0.0 0.0 0.0 0.0 0.0 0.0 0.0 0.0 0.0 0.0 0.0 0.0 0.0 0.0 0.0 0.0 0.0 0.0 0.0 0.0 0.0 0.0 0.0 0.0 0.0 0.0 0.0 0.0 0.0 0.0 0.0 0.0 0.0 0.0 0.0 0.0 0.0 0.0 0.0 0.0 0.0 0.0 0.0 0.0 0.0 0.0 0.0 0.0 0.0 0.0 0.0 0.0 0.0 0.0 0.0 0.0 0.0 0.0 0.0 0.0 0.0 0.0 0.0 0.0 0.0 0.0 0.0 0.0 0.0 0.0 0.0 0.0 0.0 0.0 0.0 0.0 0.0 0.0 0.0 0.0 0.0 0.0 0.0 0.0 0.0 0.0 0.0 0.0 0.0 0.0 0.0 0.0 0.0 0.0 0.0 0.0 0.0 0.0 0.0 0.0 0.0 0.0 0.0 0.0 0.0 0.0 0.0 0.0 0.0 0.0 0.0 0.0 0.0 0.0 0.0 0.0 0.0 0.0 0.0 0.0 0.0 0.0 0.0 0.0 0.0 0.0 0.0 0.0 0.0 0.0 0.0 0.0 0.0 0.0 0.0 0.0 0.0 0.0 0.0 0.0 0.0 0.0 0.0 0.0 </DataArray>
<DataArray Name="time" format="ascii" type="Float32">0.0 5.46708445125 10.9341689025 16.4012533537 21.868337805 27.3354222562 32.8025067075 38.2695911587 43.73667561 49.2037600612 54.6708445125 60.1379289637 65.605013415 71.0720978662 76.5391823175 82.0062667687 87.47335122 92.9404356712 98.4075201224 103.874604574 109.341689025 114.808773476 120.275857927 125.742942379 131.21002683 136.677111281 142.144195732 147.611280184 153.078364635 158.545449086 164.012533537 169.479617989 174.94670244 180.413786891 185.880871342 191.347955794 196.815040245 202.282124696 207.749209147 213.216293599 218.68337805 224.150462501 229.617546952 235.084631404 240.551715855 246.018800306 251.485884757 256.952969209 262.42005366 267.887138111 273.354222562 278.821307014 284.288391465 289.755475916 295.222560367 300.689644819 306.15672927 311.623813721 317.090898172 322.557982624 328.025067075 333.492151526 338.959235977 344.426320429 349.89340488 355.360489331 360.827573782 366.294658234 371.761742685 377.228827136 382.695911587 388.162996039 393.63008049 399.097164941 404.564249392 410.031333844 415.498418295 420.965502746 426.432587197 431.899671649 437.3667561 442.833840551 448.300925002 453.768009454 459.235093905 464.702178356 470.169262807 475.636347258 481.10343171 486.570516161 492.037600612 497.504685063 502.971769515 508.438853966 513.905938417 519.373022868 524.84010732 530.307191771 535.774276222 541.241360673 546.708445125 552.175529576 557.642614027 563.109698478 568.57678293 574.043867381 579.510951832 584.978036283 590.445120735 595.912205186 601.379289637 606.846374088 612.31345854 617.780542991 623.247627442 628.714711893 634.181796345 639.648880796 645.115965247 650.583049698 656.05013415 661.517218601 666.984303052 672.451387503 677.918471955 683.385556406 688.852640857 694.319725308 699.78680976 705.253894211 710.720978662 716.188063113 721.655147565 727.122232016 732.589316467 738.056400918 743.52348537 748.990569821 754.457654272 759.924738723 765.391823175 770.858907626 776.325992077 781.793076528 787.26016098 792.727245431 798.194329882 803.661414333 809.128498785 814.595583236 820.062667687 825.529752138 830.99683659 836.463921041 841.931005492 847.398089943 852.865174395 858.332258846 863.799343297 869.266427748 874.7335122 880.200596651 885.667681102 891.134765553 896.601850005 902.068934456 907.536018907 913.003103358 918.47018781 923.937272261 929.404356712 934.871441163 940.338525615 945.805610066 951.272694517 956.739778968 962.206863419 967.673947871 973.141032322 978.608116773 984.075201224 989.542285676 995.009370127 1000.47645458 1005.94353903 1011.41062348 1016.87770793 1022.34479238 1027.81187683 1033.27896129 1038.74604574 1044.21313019 1049.68021464 1055.14729909 1060.61438354 1066.08146799 1071.54855244 1077.0156369 1082.48272135 1087.9498058 1093.41689025 </DataArray>
<DataArray Name="function variance" format="ascii" type="Float32">0.0 0.0 0.0 0.0 0.0 0.0 0.0 0.0 0.0 0.0 0.0 0.0 0.0 0.0 0.0 0.0 0.0 0.0 159.16676965 0.0 0.0 376.13891474 0.0 0.0 0.0 0.0 0.0 0.0 0.0 0.0 0.0 0.0 0.0 0.0 0.0 0.0 0.0 36.7174573502 0.0 37.5742914774 0.0 0.0 0.0 0.0 0.0 0.0 0.0 0.0 0.0 0.0 0.0 0.0 0.0 0.0 0.0 623.874932761 0.0 0.0 497.796948514 0.0 0.0 0.0 0.0 0.0 0.0 0.0 0.0 0.0 0.0 0.0 0.0 0.0 0.0 624.44062066 0.0 0.0 289.849896427 0.0 0.0 0.0 0.0 0.0 0.0 0.0 0.0 0.0 0.0 0.0 0.0 0.0 0.0 53.5576039716 0.0 0.0 203.366841308 0.0 0.0 0.0 0.0 0.0 0.0 0.0 0.0 0.0 0.0 0.0 0.0 0.0 0.0 0.0 591.10840829 0.0 55.6332114968 0.0 0.0 0.0 0.0 0.0 0.0 0.0 0.0 0.0 0.0 0.0 0.0 0.0 0.0 0.0 557.082169639 0.0 0.0 326.714912103 0.0 0.0 0.0 0.0 0.0 0.0 0.0 0.0 0.0 0.0 0.0 0.0 0.0 0.0 215.293970976 0.0 0.0 493.722254323 0.0 0.0 0.0 0.0 0.0 0.0 0.0 0.0 0.0 0.0 0.0 0.0 0.0 0.0 0.0 342.605779898 0.0 373.048931433 0.0 0.0 0.0 0.0 0.0 0.0 0.0 0.0 0.0 0.0 0.0 0.0 0.0 0.0 0.0 447.008626805 615.896064085 622.942566152 624.930455412 621.072102564 615.884188274 611.888689294 608.941899858 607.030159621 605.704010644 605.178645582 604.534454385 604.116082784 603.923190484 603.592003537 603.592003537 603.592003537 603.453953169 </DataArray>
<DataArray Name="1 stddev of function" format="ascii" type="Float32">0.0 0.0 0.0 0.0 0.0 0.0 0.0 0.0 0.0 0.0 0.0 0.0 0.0 0.0 0.0 0.0 0.0 0.0 12.6161313266 0.0 0.0 19.3943010892 0.0 0.0 0.0 0.0 0.0 0.0 0.0 0.0 0.0 0.0 0.0 0.0 0.0 0.0 0.0 6.05949315951 0.0 6.12978722938 0.0 0.0 0.0 0.0 0.0 0.0 0.0 0.0 0.0 0.0 0.0 0.0 0.0 0.0 0.0 24.9774885199 0.0 0.0 22.3113636632 0.0 0.0 0.0 0.0 0.0 0.0 0.0 0.0 0.0 0.0 0.0 0.0 0.0 0.0 24.9888099088 0.0 0.0 17.0249786028 0.0 0.0 0.0 0.0 0.0 0.0 0.0 0.0 0.0 0.0 0.0 0.0 0.0 0.0 7.31830608622 0.0 0.0 14.2606746442 0.0 0.0 0.0 0.0 0.0 0.0 0.0 0.0 0.0 0.0 0.0 0.0 0.0 0.0 0.0 24.3127211206 0.0 7.45876742477 0.0 0.0 0.0 0.0 0.0 0.0 0.0 0.0 0.0 0.0 0.0 0.0 0.0 0.0 0.0 23.6025881979 0.0 0.0 18.0752569028 0.0 0.0 0.0 0.0 0.0 0.0 0.0 0.0 0.0 0.0 0.0 0.0 0.0 0.0 14.6728992015 0.0 0.0 22.219861708 0.0 0.0 0.0 0.0 0.0 0.0 0.0 0.0 0.0 0.0 0.0 0.0 0.0 0.0 0.0 18.5096131753 0.0 19.3144746611 0.0 0.0 0.0 0.0 0.0 0.0 0.0 0.0 0.0 0.0 0.0 0.0 0.0 0.0 0.0 21.1425785278 24.817253355 24.9588174029 24.9986090695 24.9213182349 24.8170140886 24.7363839171 24.6767481622 24.6379820525 24.6110546431 24.6003789723 24.5872823709 24.5787730122 24.5748487378 24.5681094823 24.5681094823 24.5681094823 24.5652997777 </DataArray>
<DataArray Name="function median" format="ascii" type="Float32">50.0 50.0 50.0 0.0 0.0 0.0 0.0 0.0 0.0 0.0 0.0 0.0 0.0 0.0 0.0 0.0 0.0 0.0 0.0 50.0 50.0 0.0 0.0 0.0 0.0 0.0 0.0 0.0 0.0 0.0 0.0 0.0 0.0 0.0 0.0 0.0 0.0 50.0 50.0 50.0 0.0 0.0 0.0 0.0 0.0 0.0 0.0 0.0 0.0 0.0 0.0 0.0 0.0 0.0 0.0 0.0 50.0 50.0 0.0 0.0 0.0 0.0 0.0 0.0 0.0 0.0 0.0 0.0 0.0 0.0 0.0 0.0 0.0 50.0 50.0 50.0 0.0 0.0 0.0 0.0 0.0 0.0 0.0 0.0 0.0 0.0 0.0 0.0 0.0 0.0 0.0 0.0 50.0 50.0 50.0 0.0 0.0 0.0 0.0 0.0 0.0 0.0 0.0 0.0 0.0 0.0 0.0 0.0 0.0 0.0 50.0 50.0 50.0 0.0 0.0 0.0 0.0 0.0 0.0 0.0 0.0 0.0 0.0 0.0 0.0 0.0 0.0 0.0 50.0 50.0 50.0 0.0 0.0 0.0 0.0 0.0 0.0 0.0 0.0 0.0 0.0 0.0 0.0 0.0 0.0 0.0 0.0 50.0 50.0 50.0 0.0 0.0 0.0 0.0 0.0 0.0 0.0 0.0 0.0 0.0 0.0 0.0 0.0 0.0 0.0 50.0 50.0 50.0 0.0 0.0 0.0 0.0 0.0 0.0 0.0 0.0 0.0 0.0 0.0 0.0 0.0 0.0 0.0 0.0 0.0 50.0 0.0 0.0 0.0 0.0 0.0 0.0 0.0 0.0 0.0 0.0 0.0 0.0 0.0 0.0 0.0 </DataArray>
<DataArray Name="function mean" format="ascii" type="Float32">50.0 50.0 50.0 0.0 0.0 0.0 0.0 0.0 0.0 0.0 0.0 0.0 0.0 0.0 0.0 0.0 0.0 0.0 3.41682992816 50.0 50.0 9.224668458 0.0 0.0 0.0 0.0 0.0 0.0 0.0 0.0 0.0 0.0 0.0 0.0 0.0 0.0 0.0 49.2545365375 50.0 49.2368667225 0.0 0.0 0.0 0.0 0.0 0.0 0.0 0.0 0.0 0.0 0.0 0.0 0.0 0.0 0.0 23.9393081316 50.0 50.0 13.7215669756 0.0 0.0 0.0 0.0 0.0 0.0 0.0 0.0 0.0 0.0 0.0 0.0 0.0 0.0 25.7479166667 50.0 50.0 6.69289472437 0.0 0.0 0.0 0.0 0.0 0.0 0.0 0.0 0.0 0.0 0.0 0.0 0.0 0.0 1.09513865281 50.0 50.0 45.5337078652 0.0 0.0 0.0 0.0 0.0 0.0 0.0 0.0 0.0 0.0 0.0 0.0 0.0 0.0 0.0 30.8216485389 50.0 48.8614079321 0.0 0.0 0.0 0.0 0.0 0.0 0.0 0.0 0.0 0.0 0.0 0.0 0.0 0.0 0.0 33.241227479 50.0 50.0 7.72906812308 0.0 0.0 0.0 0.0 0.0 0.0 0.0 0.0 0.0 0.0 0.0 0.0 0.0 0.0 4.75880366618 50.0 50.0 36.457650094 0.0 0.0 0.0 0.0 0.0 0.0 0.0 0.0 0.0 0.0 0.0 0.0 0.0 0.0 0.0 41.8045892572 50.0 40.8729665963 0.0 0.0 0.0 0.0 0.0 0.0 0.0 0.0 0.0 0.0 0.0 0.0 0.0 0.0 0.0 11.658659243 21.9827270731 26.4343757695 24.7362869198 23.0181076124 21.9807597435 21.3790456083 20.9927440633 20.7609151484 20.6072799593 20.5478820301 20.4761138813 20.4301075269 20.409051349 20.3731223851 20.3731223851 20.3731223851 20.3582280505 </DataArray>
</PointData>
<CellData/>
<Cells>
<DataArray Name="connectivity" format="ascii" type="Int32">0</DataArray>
<DataArray Name="offsets" format="ascii" type="Int32">0</DataArray>
<DataArray Name="types" format="ascii" type="UInt8">11</DataArray>
</Cells>
</Piece>
</UnstructuredGrid>
</VTKFile>
