<?xml version="1.0" ?>
<VTKFile byte_order="LittleEndian" type="UnstructuredGrid" version="0.1">
<UnstructuredGrid>
<Piece NumberOfCells="0" NumberOfPoints="100">
<Points>
<DataArray NumberOfComponents="3" format="ascii" type="Float32">39.2277094222 39.2277094222 39.2277094222 71.8694283629 71.8694283629 71.8694283629 86.1446692858 86.1446692858 86.1446692858 83.6117524479 83.6117524479 83.6117524479 78.6845992486 78.6845992486 78.6845992486 73.5335334995 73.5335334995 73.5335334995 68.3298337214 68.3298337214 68.3298337214 62.8731985689 62.8731985689 62.8731985689 56.9728012765 56.9728012765 56.9728012765 51.9369689715 51.9369689715 51.9369689715 49.1024169321 49.1024169321 49.1024169321 49.5084867212 49.5084867212 49.5084867212 52.2256703163 52.2256703163 52.2256703163 55.7024010233 55.7024010233 55.7024010233 58.6956934751 58.6956934751 58.6956934751 62.249389294 62.249389294 62.249389294 66.3382792242 66.3382792242 66.3382792242 70.2646784415 70.2646784415 70.2646784415 71.110938503 71.110938503 71.110938503 71.3011207842 71.3011207842 71.3011207842 70.1719524643 70.1719524643 70.1719524643 66.8785170071 66.8785170071 66.8785170071 63.3935540764 63.3935540764 63.3935540764 60.5228167591 60.5228167591 60.5228167591 57.9642666667 57.9642666667 57.9642666667 56.3494635774 56.3494635774 56.3494635774 58.1182576445 58.1182576445 58.1182576445 60.8199217095 60.8199217095 60.8199217095 65.9916129511 65.9916129511 65.9916129511 71.1949499877 71.1949499877 71.1949499877 71.8376582376 71.8376582376 71.8376582376 72.0472029808 72.0472029808 72.0472029808 70.646999366 70.646999366 70.646999366 67.1854837774 67.1854837774 67.1854837774 66.4733336259 66.4733336259 66.4733336259 66.6833403315 66.6833403315 66.6833403315 67.6306133325 67.6306133325 67.6306133325 70.1341718027 70.1341718027 70.1341718027 73.5909567178 73.5909567178 73.5909567178 73.2533854016 73.2533854016 73.2533854016 71.1648823728 71.1648823728 71.1648823728 68.9159002726 68.9159002726 68.9159002726 65.5415571617 65.5415571617 65.5415571617 63.4940035931 63.4940035931 63.4940035931 62.6496629313 62.6496629313 62.6496629313 64.9474214864 64.9474214864 64.9474214864 67.9162308006 67.9162308006 67.9162308006 71.7826060029 71.7826060029 71.7826060029 75.3062705413 75.3062705413 75.3062705413 74.4570465794 74.4570465794 74.4570465794 71.0042254578 71.0042254578 71.0042254578 67.4189520316 67.4189520316 67.4189520316 64.4098137455 64.4098137455 64.4098137455 63.1369426935 63.1369426935 63.1369426935 64.3928762799 64.3928762799 64.3928762799 64.4601934882 64.4601934882 64.4601934882 66.3342670105 66.3342670105 66.3342670105 69.0658015633 69.0658015633 69.0658015633 72.0124901282 72.0124901282 72.0124901282 71.1965831232 71.1965831232 71.1965831232 69.7435111904 69.7435111904 69.7435111904 67.4661348589 67.4661348589 67.4661348589 65.5440202058 65.5440202058 65.5440202058 64.6084534645 64.6084534645 64.6084534645 65.5300543776 65.5300543776 65.5300543776 65.8944700501 65.8944700501 65.8944700501 67.0029036556 67.0029036556 67.0029036556 69.4760194656 69.4760194656 69.4760194656 68.8185983796 68.8185983796 68.8185983796 68.4182839659 68.4182839659 68.4182839659 66.0321700742 66.0321700742 66.0321700742 64.532651117 64.532651117 64.532651117 64.4776028952 64.4776028952 64.4776028952 64.1450037526 64.1450037526 64.1450037526 67.565941203 67.565941203 67.565941203 70.3741118568 70.3741118568 70.3741118568 71.1331946703 71.1331946703 71.1331946703 72.1590326081 72.1590326081 72.1590326081 69.6166494997 69.6166494997 69.6166494997 68.1651454148 68.1651454148 68.1651454148 65.6124400562 65.6124400562 65.6124400562 63.93884989 63.93884989 63.93884989 64.5727035035 64.5727035035 64.5727035035 65.7559901741 65.7559901741 65.7559901741 69.1694619696 69.1694619696 69.1694619696 72.3116811266 72.3116811266 72.3116811266 75.0315102595 75.0315102595 75.0315102595 75.4408540125 75.4408540125 75.4408540125 75.3523445808 75.3523445808 75.3523445808 73.2368445157 73.2368445157 73.2368445157 71.5721178186 71.5721178186 71.5721178186 71.0810058689 71.0810058689 71.0810058689 71.3703575611 71.3703575611 71.3703575611 72.2110884814 72.2110884814 72.2110884814 72.5723637703 72.5723637703 72.5723637703 72.2054834217 72.2054834217 72.2054834217 70.5256615803 70.5256615803 70.5256615803 69.7498918033 69.7498918033 69.7498918033 69.5336909337 69.5336909337 69.5336909337 69.1798229738 69.1798229738 69.1798229738 </DataArray>
</Points>
<PointData>
<DataArray Name="Points" format="ascii" type="Float32">39.2277094222 39.2277094222 39.2277094222 71.8694283629 71.8694283629 71.8694283629 86.1446692858 86.1446692858 86.1446692858 83.6117524479 83.6117524479 83.6117524479 78.6845992486 78.6845992486 78.6845992486 73.5335334995 73.5335334995 73.5335334995 68.3298337214 68.3298337214 68.3298337214 62.8731985689 62.8731985689 62.8731985689 56.9728012765 56.9728012765 56.9728012765 51.9369689715 51.9369689715 51.9369689715 49.1024169321 49.1024169321 49.1024169321 49.5084867212 49.5084867212 49.5084867212 52.2256703163 52.2256703163 52.2256703163 55.7024010233 55.7024010233 55.7024010233 58.6956934751 58.6956934751 58.6956934751 62.249389294 62.249389294 62.249389294 66.3382792242 66.3382792242 66.3382792242 70.2646784415 70.2646784415 70.2646784415 71.110938503 71.110938503 71.110938503 71.3011207842 71.3011207842 71.3011207842 70.1719524643 70.1719524643 70.1719524643 66.8785170071 66.8785170071 66.8785170071 63.3935540764 63.3935540764 63.3935540764 60.5228167591 60.5228167591 60.5228167591 57.9642666667 57.9642666667 57.9642666667 56.3494635774 56.3494635774 56.3494635774 58.1182576445 58.1182576445 58.1182576445 60.8199217095 60.8199217095 60.8199217095 65.9916129511 65.9916129511 65.9916129511 71.1949499877 71.1949499877 71.1949499877 71.8376582376 71.8376582376 71.8376582376 72.0472029808 72.0472029808 72.0472029808 70.646999366 70.646999366 70.646999366 67.1854837774 67.1854837774 67.1854837774 66.4733336259 66.4733336259 66.4733336259 66.6833403315 66.6833403315 66.6833403315 67.6306133325 67.6306133325 67.6306133325 70.1341718027 70.1341718027 70.1341718027 73.5909567178 73.5909567178 73.5909567178 73.2533854016 73.2533854016 73.2533854016 71.1648823728 71.1648823728 71.1648823728 68.9159002726 68.9159002726 68.9159002726 65.5415571617 65.5415571617 65.5415571617 63.4940035931 63.4940035931 63.4940035931 62.6496629313 62.6496629313 62.6496629313 64.9474214864 64.9474214864 64.9474214864 67.9162308006 67.9162308006 67.9162308006 71.7826060029 71.7826060029 71.7826060029 75.3062705413 75.3062705413 75.3062705413 74.4570465794 74.4570465794 74.4570465794 71.0042254578 71.0042254578 71.0042254578 67.4189520316 67.4189520316 67.4189520316 64.4098137455 64.4098137455 64.4098137455 63.1369426935 63.1369426935 63.1369426935 64.3928762799 64.3928762799 64.3928762799 64.4601934882 64.4601934882 64.4601934882 66.3342670105 66.3342670105 66.3342670105 69.0658015633 69.0658015633 69.0658015633 72.0124901282 72.0124901282 72.0124901282 71.1965831232 71.1965831232 71.1965831232 69.7435111904 69.7435111904 69.7435111904 67.4661348589 67.4661348589 67.4661348589 65.5440202058 65.5440202058 65.5440202058 64.6084534645 64.6084534645 64.6084534645 65.5300543776 65.5300543776 65.5300543776 65.8944700501 65.8944700501 65.8944700501 67.0029036556 67.0029036556 67.0029036556 69.4760194656 69.4760194656 69.4760194656 68.8185983796 68.8185983796 68.8185983796 68.4182839659 68.4182839659 68.4182839659 66.0321700742 66.0321700742 66.0321700742 64.532651117 64.532651117 64.532651117 64.4776028952 64.4776028952 64.4776028952 64.1450037526 64.1450037526 64.1450037526 67.565941203 67.565941203 67.565941203 70.3741118568 70.3741118568 70.3741118568 71.1331946703 71.1331946703 71.1331946703 72.1590326081 72.1590326081 72.1590326081 69.6166494997 69.6166494997 69.6166494997 68.1651454148 68.1651454148 68.1651454148 65.6124400562 65.6124400562 65.6124400562 63.93884989 63.93884989 63.93884989 64.5727035035 64.5727035035 64.5727035035 65.7559901741 65.7559901741 65.7559901741 69.1694619696 69.1694619696 69.1694619696 72.3116811266 72.3116811266 72.3116811266 75.0315102595 75.0315102595 75.0315102595 75.4408540125 75.4408540125 75.4408540125 75.3523445808 75.3523445808 75.3523445808 73.2368445157 73.2368445157 73.2368445157 71.5721178186 71.5721178186 71.5721178186 71.0810058689 71.0810058689 71.0810058689 71.3703575611 71.3703575611 71.3703575611 72.2110884814 72.2110884814 72.2110884814 72.5723637703 72.5723637703 72.5723637703 72.2054834217 72.2054834217 72.2054834217 70.5256615803 70.5256615803 70.5256615803 69.7498918033 69.7498918033 69.7498918033 69.5336909337 69.5336909337 69.5336909337 69.1798229738 69.1798229738 69.1798229738 </DataArray>
<DataArray Name="1 stddev of GFP" format="ascii" type="Float32">39.2277094222 71.8694283629 86.1446692858 83.6117524479 78.6845992486 73.5335334995 68.3298337214 62.8731985689 56.9728012765 51.9369689715 49.1024169321 49.5084867212 52.2256703163 55.7024010233 58.6956934751 62.249389294 66.3382792242 70.2646784415 71.110938503 71.3011207842 70.1719524643 66.8785170071 63.3935540764 60.5228167591 57.9642666667 56.3494635774 58.1182576445 60.8199217095 65.9916129511 71.1949499877 71.8376582376 72.0472029808 70.646999366 67.1854837774 66.4733336259 66.6833403315 67.6306133325 70.1341718027 73.5909567178 73.2533854016 71.1648823728 68.9159002726 65.5415571617 63.4940035931 62.6496629313 64.9474214864 67.9162308006 71.7826060029 75.3062705413 74.4570465794 71.0042254578 67.4189520316 64.4098137455 63.1369426935 64.3928762799 64.4601934882 66.3342670105 69.0658015633 72.0124901282 71.1965831232 69.7435111904 67.4661348589 65.5440202058 64.6084534645 65.5300543776 65.8944700501 67.0029036556 69.4760194656 68.8185983796 68.4182839659 66.0321700742 64.532651117 64.4776028952 64.1450037526 67.565941203 70.3741118568 71.1331946703 72.1590326081 69.6166494997 68.1651454148 65.6124400562 63.93884989 64.5727035035 65.7559901741 69.1694619696 72.3116811266 75.0315102595 75.4408540125 75.3523445808 73.2368445157 71.5721178186 71.0810058689 71.3703575611 72.2110884814 72.5723637703 72.2054834217 70.5256615803 69.7498918033 69.5336909337 69.1798229738 </DataArray>
<DataArray Name="GFP variance" format="ascii" type="Float32">1538.81318651 5165.21473321 7420.90404637 6990.92514741 6191.26615891 5407.18054892 4668.96617639 3953.03909828 3245.90008529 2697.44874595 2411.04734857 2451.09025742 2727.52063999 3102.75747976 3445.18443252 3874.98646748 4400.76729043 4937.12503648 5056.76557477 5083.84982508 4924.10291266 4472.73603707 4018.74269843 3663.01134845 3359.8562102 3175.26204546 3377.73187163 3699.06287675 4354.89297989 5068.72090375 5160.64914106 5190.79945736 4990.99851942 4513.88923041 4418.70408334 4446.66787777 4573.89985973 4918.80205446 5415.62891063 5366.0584728 5064.44048313 4749.40131038 4295.69571518 4031.48849228 3924.9802654 4218.16755773 4612.61440616 5152.74252456 5671.03438284 5543.85178533 5041.60003286 4545.31509304 4148.62410674 3986.27353268 4146.4425156 4155.11654454 4400.23497982 4770.08494558 5185.79873447 5068.95344842 4864.15735317 4551.6793528 4296.01858474 4174.25225907 4294.18802674 4342.08118318 4489.38909828 4826.91728079 4735.99948293 4681.06158084 4360.24748471 4164.46306018 4157.36127511 4114.58150642 4565.15641065 4952.51561963 5059.93138401 5206.92598694 4846.47788757 4646.48704942 4304.99229013 4088.17652526 4169.63403774 4323.85024377 4784.41446917 5228.97922736 5629.72753182 5691.32245413 5677.97583382 5363.63539461 5122.56804904 5052.50939533 5093.7279384 5214.44129968 5266.74798321 5213.63183616 4973.86894133 4865.04740657 4834.93417486 4785.84790668 </DataArray>
<DataArray Name="GFP median" format="ascii" type="Float32">56.0 166.0 202.0 195.0 178.0 159.0 137.0 116.0 98.0 83.0 74.0 72.0 72.0 70.0 72.0 77.0 83.0 89.0 95.0 97.0 99.0 99.0 95.0 89.0 83.0 79.0 76.0 75.0 76.0 80.0 89.0 90.0 86.0 85.0 81.0 80.0 79.0 79.0 78.0 83.0 87.0 82.0 80.0 77.0 75.0 72.0 74.0 75.0 75.0 82.0 84.0 80.0 75.0 73.0 70.0 70.0 69.0 69.0 75.0 81.0 78.0 75.0 72.0 69.0 67.0 66.0 66.0 64.0 81.0 76.0 74.0 70.0 66.0 66.0 66.0 65.0 63.0 70.0 77.0 70.0 67.0 67.0 63.0 61.0 59.0 57.0 57.0 75.0 72.0 67.0 61.0 62.0 60.0 58.0 55.0 50.0 30.0 19.0 12.0 0.0 </DataArray>
<DataArray Name="GFP mean" format="ascii" type="Float32">60.6756491707 180.710565263 218.595772819 210.906548431 193.405244648 172.740502147 150.879887542 129.809696998 110.162806556 94.638380033 85.3630955191 85.3181538462 85.1926314794 84.4679950128 86.5401075855 91.9120026572 99.0914414414 105.856585273 109.713082871 111.01744761 111.456511541 111.776473663 106.76529249 98.9363716163 91.1184244441 88.6492493062 86.5008756153 87.2388166699 89.6582972788 92.9901251579 102.94720998 103.466609075 99.0177926644 95.361278821 91.3794902998 91.1551465153 90.5291589495 91.7404787424 90.4572282234 94.2747652227 98.2300370559 92.6418960681 89.2137830682 85.6874643333 84.7928353368 82.6215091959 85.921506613 86.4716272078 86.4622263476 94.1472295893 94.4133515785 87.5515221082 82.513843166 79.7608387979 78.2184952684 78.7479152231 78.9331304823 79.8185481054 84.381736666 89.4934709402 85.4041539634 82.8975490906 78.4124202689 75.9534752041 74.7331579442 75.0205619473 74.7337577538 72.9080809185 87.75646176 81.6651686996 79.7283404991 76.0460080867 72.3210332103 73.6914303627 74.4457433412 74.4160325771 72.4258533108 77.9334153646 85.7115064636 76.6373082868 73.5856823692 71.6565404887 68.1570646476 68.7304048439 69.6088082902 68.8214716252 68.9638580214 85.1092419683 81.3582111801 75.7394919722 71.5435324252 71.6720244929 70.4404761905 68.8160986799 66.6413903688 63.1929407148 54.6002543181 51.8289410155 51.1244220427 50.0225812089 </DataArray>
<DataArray Name="GFP +1 stddev" format="ascii" type="Float32">99.9033585929 252.579993626 304.740442104 294.518300879 272.089843897 246.274035647 219.209721264 192.682895567 167.135607832 146.575349005 134.465512451 134.826640567 137.418301796 140.170396036 145.235801061 154.161391951 165.429720666 176.121263714 180.824021374 182.318568394 181.628464005 178.65499067 170.158846566 159.459188375 149.082691111 144.998712884 144.61913326 148.058738379 155.64991023 164.185075146 174.784868218 175.513812056 169.66479203 162.546762598 157.852823926 157.838486847 158.159772282 161.874650545 164.048184941 167.528150624 169.394919429 161.557796341 154.75534023 149.181467926 147.442498268 147.568930682 153.837737414 158.254233211 161.768496889 168.604276169 165.417577036 154.97047414 146.923656912 142.897781491 142.611371548 143.208108711 145.267397493 148.884349669 156.394226794 160.690054063 155.147665154 150.363683949 143.956440475 140.561928669 140.263212322 140.915031997 141.736661409 142.384100384 156.57506014 150.083452666 145.760510573 140.578659204 136.798636105 137.836434115 142.011684544 144.790144434 143.559047981 150.092447973 155.328155963 144.802453702 139.198122425 135.595390379 132.729768151 134.486395018 138.77827026 141.133152752 143.995368281 160.550095981 156.710555761 148.976336488 143.115650244 142.753030362 141.810833752 141.027187161 139.213754139 135.398424136 125.125915898 121.578832819 120.658112976 119.202404183 </DataArray>
<DataArray Name="GFP -1 stddev" format="ascii" type="Float32">21.4479397485 108.8411369 132.451103533 127.294795983 114.720645399 99.2069686479 82.5500538208 66.9364984295 53.190005279 42.7014110614 36.260678587 35.809667125 32.966961163 28.7655939895 27.8444141104 29.6626133632 32.7531622172 35.5919068315 38.6021443679 39.7163268259 41.2845590763 44.8979566558 43.3717384134 38.4135548572 33.1541577774 32.2997857288 28.3826179708 26.4188949604 23.6666843276 21.7951751702 31.1095517424 31.4194060946 28.3707932984 28.1757950436 24.9061566739 24.4718061838 22.898545617 21.6063069397 16.8662715056 21.021379821 27.0651546831 23.7259957955 23.6722259064 22.1934607402 22.1431724055 17.6740877095 18.0052758124 14.689021205 11.1559558063 19.6901830099 23.4091261208 20.1325700766 18.1040294205 16.6238961044 13.8256189885 14.2877217348 12.5988634718 10.7527465421 12.3692465378 18.296887817 15.660642773 15.4314142317 12.8684000631 11.3450217396 9.20310356655 9.12609189727 7.73085409828 3.4320614529 18.9378633804 13.2468847337 13.6961704249 11.5133569698 7.84343031517 9.54642661005 6.87980213817 4.04192072031 1.29265864043 5.77438275653 16.0948569639 8.47216287199 7.97324231292 7.7176905987 3.58436114419 2.97441466979 0.439346320546 -3.49020950146 -6.06765223812 9.66838795577 6.00586659936 2.50264745653 -0.0285853934329 0.59101862406 -0.929881370619 -3.39498980155 -5.93097340151 -9.01254270692 -15.9254072622 -17.9209507877 -18.4092688909 -19.1572417649 </DataArray>
<DataArray Name="time" format="ascii" type="Float32">0.0 10.5976685446 21.1953370892 31.7930056338 42.3906741784 52.988342723 63.5860112676 74.1836798123 84.7813483569 95.3790169015 105.976685446 116.574353991 127.172022535 137.76969108 148.367359625 158.965028169 169.562696714 180.160365258 190.758033803 201.355702348 211.953370892 222.551039437 233.148707981 243.746376526 254.344045071 264.941713615 275.53938216 286.137050704 296.734719249 307.332387794 317.930056338 328.527724883 339.125393427 349.723061972 360.320730517 370.918399061 381.516067606 392.11373615 402.711404695 413.30907324 423.906741784 434.504410329 445.102078874 455.699747418 466.297415963 476.895084507 487.492753052 498.090421597 508.688090141 519.285758686 529.88342723 540.481095775 551.07876432 561.676432864 572.274101409 582.871769953 593.469438498 604.067107043 614.664775587 625.262444132 635.860112676 646.457781221 657.055449766 667.65311831 678.250786855 688.8484554 699.446123944 710.043792489 720.641461033 731.239129578 741.836798123 752.434466667 763.032135212 773.629803756 784.227472301 794.825140846 805.42280939 816.020477935 826.618146479 837.215815024 847.813483569 858.411152113 869.008820658 879.606489202 890.204157747 900.801826292 911.399494836 921.997163381 932.594831925 943.19250047 953.790169015 964.387837559 974.985506104 985.583174649 996.180843193 1006.77851174 1017.37618028 1027.97384883 1038.57151737 1049.16918592 </DataArray>
<DataArray Name="GFP coefficient of variation" format="ascii" type="Float32">0.646514869776 0.397704629269 0.394082045481 0.396439812182 0.406837981006 0.425687853082 0.452875693603 0.484349012614 0.517169115947 0.548793934907 0.575218326298 0.580280801791 0.613030369052 0.659449783493 0.678248445868 0.677271602123 0.669465276307 0.663772388466 0.648153680876 0.642251486763 0.62959042495 0.59832373321 0.593765563677 0.611734752046 0.636142108693 0.635645129749 0.671880570353 0.697165826305 0.736034644356 0.765618390843 0.697810637622 0.696332890627 0.713477825197 0.704536312936 0.727442595793 0.731536757722 0.747058893701 0.764484475819 0.813544237018 0.777020077734 0.724471704437 0.74389561524 0.734657301906 0.740995244603 0.738855620082 0.786083698041 0.790445064081 0.830129006713 0.870973067922 0.790857542003 0.752057037174 0.770048885595 0.780594034578 0.791578218647 0.823243608292 0.818563809666 0.840385610011 0.865285114835 0.853413226291 0.795550584587 0.81662902744 0.813849572141 0.835888242973 0.850631959774 0.876853811351 0.878352125599 0.896554725326 0.952926185827 0.784199784259 0.837790272835 0.828214530252 0.848600113807 0.891547037328 0.870454046514 0.907586359819 0.945684813066 0.98215197224 0.92590620173 0.812220580084 0.889451194707 0.891646825086 0.892296075891 0.94741027709 0.95672345192 0.993688351642 1.05071396207 1.08798307421 0.88640025769 0.926179957594 0.966957166052 1.00039955245 0.991753844987 1.01320095236 1.04933423816 1.08899834425 1.14261945409 1.29167276712 1.34577111623 1.3600875698 1.38297187594 </DataArray>
</PointData>
<CellData/>
<Cells>
<DataArray Name="connectivity" format="ascii" type="Int32">0</DataArray>
<DataArray Name="offsets" format="ascii" type="Int32">0</DataArray>
<DataArray Name="types" format="ascii" type="UInt8">11</DataArray>
</Cells>
</Piece>
</UnstructuredGrid>
</VTKFile>
