<?xml version="1.0" ?>
<VTKFile byte_order="LittleEndian" type="UnstructuredGrid" version="0.1">
<UnstructuredGrid>
<Piece NumberOfCells="0" NumberOfPoints="100">
<Points>
<DataArray NumberOfComponents="3" format="ascii" type="Float32">15.5733285784 15.5733285784 15.5733285784 74.386087545 74.386087545 74.386087545 113.08759102 113.08759102 113.08759102 93.8340146723 93.8340146723 93.8340146723 75.5790102148 75.5790102148 75.5790102148 58.8607571153 58.8607571153 58.8607571153 43.5109537959 43.5109537959 43.5109537959 30.2583712765 30.2583712765 30.2583712765 19.1343894032 19.1343894032 19.1343894032 10.7175030925 10.7175030925 10.7175030925 39.8405494556 39.8405494556 39.8405494556 94.7583655552 94.7583655552 94.7583655552 62.0426450222 62.0426450222 62.0426450222 34.2540641845 34.2540641845 34.2540641845 17.2811404774 17.2811404774 17.2811404774 7.60926113002 7.60926113002 7.60926113002 2.87019358756 2.87019358756 2.87019358756 0.861854257543 0.861854257543 0.861854257543 0.36875904771 0.36875904771 0.36875904771 3.8408126944 3.8408126944 3.8408126944 62.1374593196 62.1374593196 62.1374593196 72.6180306199 72.6180306199 72.6180306199 48.0229156838 48.0229156838 48.0229156838 28.679179476 28.679179476 28.679179476 16.5086649421 16.5086649421 16.5086649421 7.91757134637 7.91757134637 7.91757134637 3.41049321491 3.41049321491 3.41049321491 1.88913280639 1.88913280639 1.88913280639 1.08640085648 1.08640085648 1.08640085648 28.7888517379 28.7888517379 28.7888517379 67.8573457088 67.8573457088 67.8573457088 48.8113116272 48.8113116272 48.8113116272 28.7371359896 28.7371359896 28.7371359896 17.7798089772 17.7798089772 17.7798089772 8.00644531416 8.00644531416 8.00644531416 3.09137188707 3.09137188707 3.09137188707 0.310747418123 0.310747418123 0.310747418123 -0.490940758698 -0.490940758698 -0.490940758698 3.64102797426 3.64102797426 3.64102797426 49.6398102153 49.6398102153 49.6398102153 49.2936844602 49.2936844602 49.2936844602 34.1573418798 34.1573418798 34.1573418798 19.012191651 19.012191651 19.012191651 7.7019721466 7.7019721466 7.7019721466 4.00889921291 4.00889921291 4.00889921291 0.368897782615 0.368897782615 0.368897782615 -0.571285458504 -0.571285458504 -0.571285458504 -0.275500435617 -0.275500435617 -0.275500435617 21.9456960402 21.9456960402 21.9456960402 57.086508939 57.086508939 57.086508939 36.8177006865 36.8177006865 36.8177006865 20.2782971206 20.2782971206 20.2782971206 10.6822181144 10.6822181144 10.6822181144 4.33607481394 4.33607481394 4.33607481394 1.81328772304 1.81328772304 1.81328772304 -0.65619443426 -0.65619443426 -0.65619443426 -0.999683207425 -0.999683207425 -0.999683207425 2.85630768784 2.85630768784 2.85630768784 38.4489713475 38.4489713475 38.4489713475 39.5660947954 39.5660947954 39.5660947954 22.5298754435 22.5298754435 22.5298754435 11.6467470486 11.6467470486 11.6467470486 4.1118571821 4.1118571821 4.1118571821 1.70871960343 1.70871960343 1.70871960343 -0.27289527431 -0.27289527431 -0.27289527431 -1.5182397534 -1.5182397534 -1.5182397534 -1.49560132715 -1.49560132715 -1.49560132715 18.7930980535 18.7930980535 18.7930980535 37.4776457162 37.4776457162 37.4776457162 24.0890776397 24.0890776397 24.0890776397 12.3964330151 12.3964330151 12.3964330151 6.25202800654 6.25202800654 6.25202800654 0.816732002837 0.816732002837 0.816732002837 -0.0926259967771 -0.0926259967771 -0.0926259967771 -1.62630116741 -1.62630116741 -1.62630116741 -2.00432321554 -2.00432321554 -2.00432321554 1.23682785784 1.23682785784 1.23682785784 28.2790704441 28.2790704441 28.2790704441 24.6662436189 24.6662436189 24.6662436189 15.0742305307 15.0742305307 15.0742305307 5.70631854288 5.70631854288 5.70631854288 1.70565951262 1.70565951262 1.70565951262 -1.08521551635 -1.08521551635 -1.08521551635 -1.58026417389 -1.58026417389 -1.58026417389 -2.3431282936 -2.3431282936 -2.3431282936 -3.16255911726 -3.16255911726 -3.16255911726 13.037185872 13.037185872 13.037185872 25.9905444234 25.9905444234 25.9905444234 11.600030569 11.600030569 11.600030569 5.93218514287 5.93218514287 5.93218514287 0.364512893531 0.364512893531 0.364512893531 -0.53789181109 -0.53789181109 -0.53789181109 -2.81940519924 -2.81940519924 -2.81940519924 -2.49567421089 -2.49567421089 -2.49567421089 -2.7934008746 -2.7934008746 -2.7934008746 -2.56782925782 -2.56782925782 -2.56782925782 -3.31358934899 -3.31358934899 -3.31358934899 -3.60647384913 -3.60647384913 -3.60647384913 -3.71096035726 -3.71096035726 -3.71096035726 -3.72762735925 -3.72762735925 -3.72762735925 </DataArray>
</Points>
<PointData>
<DataArray Name="Points" format="ascii" type="Float32">15.5733285784 15.5733285784 15.5733285784 74.386087545 74.386087545 74.386087545 113.08759102 113.08759102 113.08759102 93.8340146723 93.8340146723 93.8340146723 75.5790102148 75.5790102148 75.5790102148 58.8607571153 58.8607571153 58.8607571153 43.5109537959 43.5109537959 43.5109537959 30.2583712765 30.2583712765 30.2583712765 19.1343894032 19.1343894032 19.1343894032 10.7175030925 10.7175030925 10.7175030925 39.8405494556 39.8405494556 39.8405494556 94.7583655552 94.7583655552 94.7583655552 62.0426450222 62.0426450222 62.0426450222 34.2540641845 34.2540641845 34.2540641845 17.2811404774 17.2811404774 17.2811404774 7.60926113002 7.60926113002 7.60926113002 2.87019358756 2.87019358756 2.87019358756 0.861854257543 0.861854257543 0.861854257543 0.36875904771 0.36875904771 0.36875904771 3.8408126944 3.8408126944 3.8408126944 62.1374593196 62.1374593196 62.1374593196 72.6180306199 72.6180306199 72.6180306199 48.0229156838 48.0229156838 48.0229156838 28.679179476 28.679179476 28.679179476 16.5086649421 16.5086649421 16.5086649421 7.91757134637 7.91757134637 7.91757134637 3.41049321491 3.41049321491 3.41049321491 1.88913280639 1.88913280639 1.88913280639 1.08640085648 1.08640085648 1.08640085648 28.7888517379 28.7888517379 28.7888517379 67.8573457088 67.8573457088 67.8573457088 48.8113116272 48.8113116272 48.8113116272 28.7371359896 28.7371359896 28.7371359896 17.7798089772 17.7798089772 17.7798089772 8.00644531416 8.00644531416 8.00644531416 3.09137188707 3.09137188707 3.09137188707 0.310747418123 0.310747418123 0.310747418123 -0.490940758698 -0.490940758698 -0.490940758698 3.64102797426 3.64102797426 3.64102797426 49.6398102153 49.6398102153 49.6398102153 49.2936844602 49.2936844602 49.2936844602 34.1573418798 34.1573418798 34.1573418798 19.012191651 19.012191651 19.012191651 7.7019721466 7.7019721466 7.7019721466 4.00889921291 4.00889921291 4.00889921291 0.368897782615 0.368897782615 0.368897782615 -0.571285458504 -0.571285458504 -0.571285458504 -0.275500435617 -0.275500435617 -0.275500435617 21.9456960402 21.9456960402 21.9456960402 57.086508939 57.086508939 57.086508939 36.8177006865 36.8177006865 36.8177006865 20.2782971206 20.2782971206 20.2782971206 10.6822181144 10.6822181144 10.6822181144 4.33607481394 4.33607481394 4.33607481394 1.81328772304 1.81328772304 1.81328772304 -0.65619443426 -0.65619443426 -0.65619443426 -0.999683207425 -0.999683207425 -0.999683207425 2.85630768784 2.85630768784 2.85630768784 38.4489713475 38.4489713475 38.4489713475 39.5660947954 39.5660947954 39.5660947954 22.5298754435 22.5298754435 22.5298754435 11.6467470486 11.6467470486 11.6467470486 4.1118571821 4.1118571821 4.1118571821 1.70871960343 1.70871960343 1.70871960343 -0.27289527431 -0.27289527431 -0.27289527431 -1.5182397534 -1.5182397534 -1.5182397534 -1.49560132715 -1.49560132715 -1.49560132715 18.7930980535 18.7930980535 18.7930980535 37.4776457162 37.4776457162 37.4776457162 24.0890776397 24.0890776397 24.0890776397 12.3964330151 12.3964330151 12.3964330151 6.25202800654 6.25202800654 6.25202800654 0.816732002837 0.816732002837 0.816732002837 -0.0926259967771 -0.0926259967771 -0.0926259967771 -1.62630116741 -1.62630116741 -1.62630116741 -2.00432321554 -2.00432321554 -2.00432321554 1.23682785784 1.23682785784 1.23682785784 28.2790704441 28.2790704441 28.2790704441 24.6662436189 24.6662436189 24.6662436189 15.0742305307 15.0742305307 15.0742305307 5.70631854288 5.70631854288 5.70631854288 1.70565951262 1.70565951262 1.70565951262 -1.08521551635 -1.08521551635 -1.08521551635 -1.58026417389 -1.58026417389 -1.58026417389 -2.3431282936 -2.3431282936 -2.3431282936 -3.16255911726 -3.16255911726 -3.16255911726 13.037185872 13.037185872 13.037185872 25.9905444234 25.9905444234 25.9905444234 11.600030569 11.600030569 11.600030569 5.93218514287 5.93218514287 5.93218514287 0.364512893531 0.364512893531 0.364512893531 -0.53789181109 -0.53789181109 -0.53789181109 -2.81940519924 -2.81940519924 -2.81940519924 -2.49567421089 -2.49567421089 -2.49567421089 -2.7934008746 -2.7934008746 -2.7934008746 -2.56782925782 -2.56782925782 -2.56782925782 -3.31358934899 -3.31358934899 -3.31358934899 -3.60647384913 -3.60647384913 -3.60647384913 -3.71096035726 -3.71096035726 -3.71096035726 -3.72762735925 -3.72762735925 -3.72762735925 </DataArray>
<DataArray Name="CFP -1 stddev" format="ascii" type="Float32">15.5733285784 74.386087545 113.08759102 93.8340146723 75.5790102148 58.8607571153 43.5109537959 30.2583712765 19.1343894032 10.7175030925 39.8405494556 94.7583655552 62.0426450222 34.2540641845 17.2811404774 7.60926113002 2.87019358756 0.861854257543 0.36875904771 3.8408126944 62.1374593196 72.6180306199 48.0229156838 28.679179476 16.5086649421 7.91757134637 3.41049321491 1.88913280639 1.08640085648 28.7888517379 67.8573457088 48.8113116272 28.7371359896 17.7798089772 8.00644531416 3.09137188707 0.310747418123 -0.490940758698 3.64102797426 49.6398102153 49.2936844602 34.1573418798 19.012191651 7.7019721466 4.00889921291 0.368897782615 -0.571285458504 -0.275500435617 21.9456960402 57.086508939 36.8177006865 20.2782971206 10.6822181144 4.33607481394 1.81328772304 -0.65619443426 -0.999683207425 2.85630768784 38.4489713475 39.5660947954 22.5298754435 11.6467470486 4.1118571821 1.70871960343 -0.27289527431 -1.5182397534 -1.49560132715 18.7930980535 37.4776457162 24.0890776397 12.3964330151 6.25202800654 0.816732002837 -0.0926259967771 -1.62630116741 -2.00432321554 1.23682785784 28.2790704441 24.6662436189 15.0742305307 5.70631854288 1.70565951262 -1.08521551635 -1.58026417389 -2.3431282936 -3.16255911726 13.037185872 25.9905444234 11.600030569 5.93218514287 0.364512893531 -0.53789181109 -2.81940519924 -2.49567421089 -2.7934008746 -2.56782925782 -3.31358934899 -3.60647384913 -3.71096035726 -3.72762735925 </DataArray>
<DataArray Name="1 stddev of CFP" format="ascii" type="Float32">15.2288027089 26.8402076184 14.1785773104 15.358019266 16.7290705933 17.7946336057 18.3557475225 18.2515715698 17.2746499311 15.3660808203 28.1593561112 22.9411800715 26.3861900303 25.7133528211 22.8942989502 19.3011485473 15.7205537434 12.4008785437 9.65720059203 20.6364254008 33.4434029014 29.386913991 27.8664608367 26.1693096714 22.8204097587 19.6201435076 15.8102914849 11.9893937248 9.4434907041 31.9592359959 36.8035160591 32.7144157628 30.1897439047 25.9052605177 22.5889799558 18.7287442592 15.0350774484 11.6764908408 24.9646182338 42.6143624566 40.0332964826 33.0336349051 28.6717108816 24.5177130369 19.6278399906 15.5826467359 11.9902476011 11.5192031761 38.7871381939 42.4792746928 37.3560505378 32.3071615775 26.8422590607 21.78088809 17.0739434337 13.1499313376 9.86957946706 27.9756875681 48.1484269961 42.3409810784 36.4281277646 30.6974091047 25.3320448076 20.0769130729 15.7261038949 11.9094894625 14.2084735341 43.7604757578 49.9883893475 40.8692251417 33.8515387326 27.5052334042 21.9619904236 17.4107061876 13.4392349666 10.2634462572 31.5338498137 52.6517419198 46.0270759707 37.1897983173 30.3923997683 23.9486152278 18.7364726885 14.4737379813 10.9176870276 16.9948288176 47.4454396106 51.4310675776 42.1877204254 33.6881530214 27.1451590997 21.5945910347 16.8374249083 13.244547806 9.78940978494 9.90639275066 9.46286867609 9.19115141801 9.07103438651 9.05038130002 </DataArray>
<DataArray Name="CFP coefficient of variation" format="ascii" type="Float32">0.494407434564 0.26515054784 0.111408848844 0.140651462493 0.181230835338 0.232138058894 0.296698339031 0.376243930603 0.474460470447 0.589109260127 0.414108753188 0.194913072513 0.298388981543 0.428788734034 0.569858084352 0.717237261667 0.845611715523 0.935016842271 0.963219575885 0.843086353147 0.34989643454 0.288093034148 0.367198442184 0.477119973188 0.580242732185 0.712482630154 0.822562227912 0.86388088086 0.896826966334 0.52609451899 0.351645452153 0.401277201813 0.51232551187 0.593000327509 0.738312337759 0.858324682309 0.979750360712 1.04389062273 0.872716457871 0.461923414653 0.448165784403 0.491637962206 0.601287003764 0.760954456794 0.830395420519 0.976873851796 1.05002954309 1.02450264312 0.638651870657 0.426645310702 0.503628978193 0.614374436914 0.715326663592 0.833974768433 0.903993988955 1.0525218707 1.11270517469 0.907358973555 0.55600315849 0.516939234208 0.617865697316 0.724950309401 0.86034944745 0.921566675211 1.01765945708 1.14610752276 1.11764464417 0.699567955778 0.571517724693 0.629160913874 0.731957261116 0.814794573219 0.96414496004 1.00534851414 1.1376712335 1.24267990747 0.962258093341 0.650577207641 0.651080982445 0.711575420744 0.841924621985 0.933513633503 1.06148091922 1.12256310421 1.27326517507 1.22863631102 0.784447421586 0.664298588577 0.784336947455 0.85027424253 0.986749645957 1.02554492541 1.20112721039 1.23218006881 1.39928492236 1.34990897882 1.53885816089 1.64578013764 1.69233378812 1.70031930853 </DataArray>
<DataArray Name="time" format="ascii" type="Float32">0.0 10.5877379222 21.1754758444 31.7632137666 42.3509516887 52.9386896109 63.5264275331 74.1141654553 84.7019033775 95.2896412997 105.877379222 116.465117144 127.052855066 137.640592988 148.228330911 158.816068833 169.403806755 179.991544677 190.579282599 201.167020522 211.754758444 222.342496366 232.930234288 243.51797221 254.105710132 264.693448055 275.281185977 285.868923899 296.456661821 307.044399743 317.632137666 328.219875588 338.80761351 349.395351432 359.983089354 370.570827277 381.158565199 391.746303121 402.334041043 412.921778965 423.509516887 434.09725481 444.684992732 455.272730654 465.860468576 476.448206498 487.035944421 497.623682343 508.211420265 518.799158187 529.386896109 539.974634032 550.562371954 561.150109876 571.737847798 582.32558572 592.913323642 603.501061565 614.088799487 624.676537409 635.264275331 645.852013253 656.439751176 667.027489098 677.61522702 688.202964942 698.790702864 709.378440787 719.966178709 730.553916631 741.141654553 751.729392475 762.317130397 772.90486832 783.492606242 794.080344164 804.668082086 815.255820008 825.843557931 836.431295853 847.019033775 857.606771697 868.194509619 878.782247542 889.369985464 899.957723386 910.545461308 921.13319923 931.720937152 942.308675075 952.896412997 963.484150919 974.071888841 984.659626763 995.247364686 1005.83510261 1016.42284053 1027.01057845 1037.59831637 1048.1860543 </DataArray>
<DataArray Name="CFP variance" format="ascii" type="Float32">231.916431945 720.396745001 201.032054548 235.868755774 279.861802915 316.648985161 336.933467109 333.119864769 298.413530242 236.116439777 792.949336598 526.297743073 696.231024317 661.176513304 524.148924423 372.534335243 247.135809999 153.781788655 93.2615232748 425.862053324 1118.46119762 863.590713914 776.539639563 684.832768678 520.771101556 384.950031257 249.965316836 143.745561889 89.1795166785 1021.39276544 1354.49879431 1070.2329987 911.420637033 671.082522491 510.262015442 350.765861525 226.053553879 136.340438355 623.232163559 1815.98388758 1602.66482727 1091.22103505 822.067004878 601.118252559 385.252102698 242.818879295 143.766037535 132.692041812 1504.44208927 1804.48877843 1395.47451179 1043.7526892 720.506871481 474.407085988 291.519544378 172.920694185 97.4085988566 782.639094906 2318.2710222 1792.75867868 1327.00849243 942.33092574 641.712494133 403.082438539 247.310343714 141.835939257 201.880720171 1914.97923855 2498.83906956 1670.29356368 1145.92667456 756.537864622 482.329023368 303.13268995 180.613036489 105.338329074 994.383684076 2772.20592719 2118.49172242 1383.08109888 923.697963676 573.536171328 351.055408808 209.489091152 119.195890033 288.824206539 2251.06973984 2645.15471217 1779.80375469 1134.89165399 736.85966255 466.326361957 283.498877543 175.418046585 95.8325439376 98.1366173303 89.5458835809 84.4772643887 82.2836648413 81.9094016757 </DataArray>
<DataArray Name="CFP median" format="ascii" type="Float32">29.0 101.0 127.0 109.0 92.0 76.0 61.0 47.0 35.0 24.0 68.0 117.0 87.0 58.0 37.0 23.0 14.0 10.0 7.0 19.0 99.0 106.0 78.0 55.0 37.0 24.0 15.0 11.0 8.0 62.0 113.0 87.0 61.0 43.0 27.0 17.0 11.0 8.0 23.0 102.0 99.0 72.0 49.0 30.0 20.0 12.0 8.0 8.0 65.0 112.0 82.0 57.0 37.0 23.0 15.0 9.0 6.0 25.0 102.0 93.0 66.0 44.0 27.0 18.0 11.0 7.0 8.0 69.0 105.0 75.0 50.0 33.0 19.0 14.0 8.0 5.0 26.0 102.0 86.0 59.0 37.0 23.0 13.0 9.0 5.0 7.0 69.0 97.0 64.0 41.0 24.0 16.0 8.0 7.0 3.0 4.0 2.0 0.0 0.0 0.0 </DataArray>
<DataArray Name="CFP +1 stddev" format="ascii" type="Float32">46.0309339962 128.066502782 141.444745641 124.550053204 109.037151401 94.4500243267 80.2224488408 66.7615144162 53.6836892654 41.4496647331 96.159261678 140.640725698 114.815025083 85.6807698267 63.0697383779 46.2115582245 34.3113010744 25.6636113449 19.6831602318 45.1136634961 129.024265122 131.391858602 103.755837357 81.0177988188 62.1494844596 47.1578583615 35.0310761846 25.867920256 19.9733822647 92.7073237298 141.464377827 114.240143153 89.1166237991 69.5903300126 53.1844052257 40.5488604054 30.3809023149 22.8620409229 53.5702644418 134.868535128 129.360277425 100.22461169 76.3556134142 56.7373982204 43.2645791942 31.5341912543 23.4092097436 22.7629059165 99.519972428 142.045058325 111.529801762 84.8926202757 64.3667362358 47.8978509939 35.9611745905 25.643668241 18.7394757267 58.807682824 134.74582534 124.248056952 95.3861309726 73.041565258 54.7759467973 41.8625457493 31.1793125155 22.3007391716 26.9213457411 106.314049569 137.454424411 105.827527923 80.0995104802 61.262494815 44.7407128501 34.7287863784 25.2521687659 18.5225692988 64.3045274853 133.582554284 116.72039556 89.4538271654 66.4911180795 49.6028899682 36.3877298607 27.3672117888 19.4922457616 30.8270985179 107.928065093 128.852679579 95.9754714198 73.3084911856 54.654831093 42.6512902584 30.8554446174 23.9934214011 16.7854186953 17.2449562435 15.6121480032 14.7758289869 14.4311084158 14.3731352408 </DataArray>
<DataArray Name="CFP mean" format="ascii" type="Float32">30.8021312873 101.226295163 127.26616833 109.192033938 92.3080808081 76.655390721 61.8667013183 48.5099428463 36.4090393343 26.0835839128 67.9999055668 117.699545627 88.4288350525 59.9674170056 40.1754394277 26.9104096773 18.590747331 13.2627328012 10.0259596397 24.4772380952 95.580862221 102.004944611 75.8893765205 54.8484891474 39.3290747009 27.5377148539 19.2207846998 13.8785265312 10.5298915606 60.7480877338 104.660861768 81.52572739 58.9268798943 43.6850694949 30.5954252699 21.8201161462 15.3458248665 11.1855500821 28.605646208 92.2541726719 89.3269809428 67.1909767849 47.6839025326 32.2196851835 23.6367392035 15.9515445185 11.4189621426 11.2437027405 60.7328342341 99.5657836318 74.1737512243 52.5854586981 37.5244771751 26.1169629039 18.8872311568 12.4937369034 8.86989625964 30.8319952559 86.5973983435 81.9070758738 58.9580032081 42.3441561533 29.4439019897 21.7856326764 15.4532086206 10.3912497091 12.712872207 62.5535738113 87.4660350637 64.9583027814 46.2479717476 33.7572614108 22.7787224265 17.3180801908 11.8129337992 8.25912304165 32.7706776716 80.9308123639 70.6933195897 52.2640288481 36.0987183112 25.6542747404 17.6512571722 12.8934738074 8.57455873402 13.8322697003 60.4826254826 77.421612001 53.7877509944 39.6203381643 27.5096719933 21.0566992236 14.0180197091 10.7488735951 6.99600891034 7.33856349284 6.1492793271 5.58467756888 5.36007402926 5.32275394076 </DataArray>
</PointData>
<CellData/>
<Cells>
<DataArray Name="connectivity" format="ascii" type="Int32">0</DataArray>
<DataArray Name="offsets" format="ascii" type="Int32">0</DataArray>
<DataArray Name="types" format="ascii" type="UInt8">11</DataArray>
</Cells>
</Piece>
</UnstructuredGrid>
</VTKFile>
