<?xml version="1.0" ?>
<VTKFile byte_order="LittleEndian" type="UnstructuredGrid" version="0.1">
<UnstructuredGrid>
<Piece NumberOfCells="0" NumberOfPoints="100">
<Points>
<DataArray NumberOfComponents="3" format="ascii" type="Float32">39.5955562679 39.5955562679 39.5955562679 70.2951099877 70.2951099877 70.2951099877 79.7490869888 79.7490869888 79.7490869888 77.5397995201 77.5397995201 77.5397995201 73.217990652 73.217990652 73.217990652 68.2539872364 68.2539872364 68.2539872364 63.2003700602 63.2003700602 63.2003700602 57.4250420918 57.4250420918 57.4250420918 52.2513398884 52.2513398884 52.2513398884 48.4817945621 48.4817945621 48.4817945621 48.3746507403 48.3746507403 48.3746507403 51.3124536888 51.3124536888 51.3124536888 54.0614458266 54.0614458266 54.0614458266 57.1854793085 57.1854793085 57.1854793085 61.6162426694 61.6162426694 61.6162426694 66.4195566695 66.4195566695 66.4195566695 70.0542756225 70.0542756225 70.0542756225 71.3532645651 71.3532645651 71.3532645651 71.4602749826 71.4602749826 71.4602749826 70.6510337147 70.6510337147 70.6510337147 67.8075086284 67.8075086284 67.8075086284 64.9374448475 64.9374448475 64.9374448475 61.278626281 61.278626281 61.278626281 58.965581041 58.965581041 58.965581041 58.7450061096 58.7450061096 58.7450061096 60.6088981991 60.6088981991 60.6088981991 63.7200469735 63.7200469735 63.7200469735 67.9035179084 67.9035179084 67.9035179084 72.0082708141 72.0082708141 72.0082708141 71.4639202847 71.4639202847 71.4639202847 69.6147023284 69.6147023284 69.6147023284 67.6823187881 67.6823187881 67.6823187881 65.336219016 65.336219016 65.336219016 63.9087465762 63.9087465762 63.9087465762 64.487786007 64.487786007 64.487786007 66.6155710784 66.6155710784 66.6155710784 68.7196968381 68.7196968381 68.7196968381 71.0378042093 71.0378042093 71.0378042093 71.5161562975 71.5161562975 71.5161562975 69.9909426525 69.9909426525 69.9909426525 68.1997882744 68.1997882744 68.1997882744 65.7867539615 65.7867539615 65.7867539615 65.1253328697 65.1253328697 65.1253328697 65.1861555638 65.1861555638 65.1861555638 67.6657096777 67.6657096777 67.6657096777 70.2748536189 70.2748536189 70.2748536189 72.6459574943 72.6459574943 72.6459574943 73.5678389734 73.5678389734 73.5678389734 71.6791178294 71.6791178294 71.6791178294 69.568991192 69.568991192 69.568991192 66.6156871023 66.6156871023 66.6156871023 64.4795550251 64.4795550251 64.4795550251 65.0516119119 65.0516119119 65.0516119119 66.3774700528 66.3774700528 66.3774700528 68.7940496263 68.7940496263 68.7940496263 71.0746221386 71.0746221386 71.0746221386 72.9013749952 72.9013749952 72.9013749952 71.9785590892 71.9785590892 71.9785590892 69.5634942322 69.5634942322 69.5634942322 68.2178612442 68.2178612442 68.2178612442 66.2944443291 66.2944443291 66.2944443291 66.2977048936 66.2977048936 66.2977048936 67.8579049959 67.8579049959 67.8579049959 70.9173430102 70.9173430102 70.9173430102 73.8934722993 73.8934722993 73.8934722993 76.2480446774 76.2480446774 76.2480446774 75.0546941614 75.0546941614 75.0546941614 72.7038823324 72.7038823324 72.7038823324 69.4893173582 69.4893173582 69.4893173582 67.4124866805 67.4124866805 67.4124866805 66.5318131811 66.5318131811 66.5318131811 67.0580612044 67.0580612044 67.0580612044 69.2066308853 69.2066308853 69.2066308853 71.3519055303 71.3519055303 71.3519055303 73.4530665379 73.4530665379 73.4530665379 72.9266685203 72.9266685203 72.9266685203 72.5148429375 72.5148429375 72.5148429375 70.108264454 70.108264454 70.108264454 68.1456773427 68.1456773427 68.1456773427 66.7854714185 66.7854714185 66.7854714185 68.1700880523 68.1700880523 68.1700880523 70.0569738007 70.0569738007 70.0569738007 72.2172464228 72.2172464228 72.2172464228 73.6412081949 73.6412081949 73.6412081949 73.9802509325 73.9802509325 73.9802509325 72.7766127921 72.7766127921 72.7766127921 70.0479343791 70.0479343791 70.0479343791 67.8771527667 67.8771527667 67.8771527667 67.5599669694 67.5599669694 67.5599669694 67.385835003 67.385835003 67.385835003 68.0881558848 68.0881558848 68.0881558848 67.8644782557 67.8644782557 67.8644782557 65.9117464413 65.9117464413 65.9117464413 63.365478456 63.365478456 63.365478456 62.3334437333 62.3334437333 62.3334437333 61.9530304374 61.9530304374 61.9530304374 61.7347054665 61.7347054665 61.7347054665 61.6414924348 61.6414924348 61.6414924348 61.6178234602 61.6178234602 61.6178234602 61.6178234602 61.6178234602 61.6178234602 </DataArray>
</Points>
<PointData>
<DataArray Name="Points" format="ascii" type="Float32">39.5955562679 39.5955562679 39.5955562679 70.2951099877 70.2951099877 70.2951099877 79.7490869888 79.7490869888 79.7490869888 77.5397995201 77.5397995201 77.5397995201 73.217990652 73.217990652 73.217990652 68.2539872364 68.2539872364 68.2539872364 63.2003700602 63.2003700602 63.2003700602 57.4250420918 57.4250420918 57.4250420918 52.2513398884 52.2513398884 52.2513398884 48.4817945621 48.4817945621 48.4817945621 48.3746507403 48.3746507403 48.3746507403 51.3124536888 51.3124536888 51.3124536888 54.0614458266 54.0614458266 54.0614458266 57.1854793085 57.1854793085 57.1854793085 61.6162426694 61.6162426694 61.6162426694 66.4195566695 66.4195566695 66.4195566695 70.0542756225 70.0542756225 70.0542756225 71.3532645651 71.3532645651 71.3532645651 71.4602749826 71.4602749826 71.4602749826 70.6510337147 70.6510337147 70.6510337147 67.8075086284 67.8075086284 67.8075086284 64.9374448475 64.9374448475 64.9374448475 61.278626281 61.278626281 61.278626281 58.965581041 58.965581041 58.965581041 58.7450061096 58.7450061096 58.7450061096 60.6088981991 60.6088981991 60.6088981991 63.7200469735 63.7200469735 63.7200469735 67.9035179084 67.9035179084 67.9035179084 72.0082708141 72.0082708141 72.0082708141 71.4639202847 71.4639202847 71.4639202847 69.6147023284 69.6147023284 69.6147023284 67.6823187881 67.6823187881 67.6823187881 65.336219016 65.336219016 65.336219016 63.9087465762 63.9087465762 63.9087465762 64.487786007 64.487786007 64.487786007 66.6155710784 66.6155710784 66.6155710784 68.7196968381 68.7196968381 68.7196968381 71.0378042093 71.0378042093 71.0378042093 71.5161562975 71.5161562975 71.5161562975 69.9909426525 69.9909426525 69.9909426525 68.1997882744 68.1997882744 68.1997882744 65.7867539615 65.7867539615 65.7867539615 65.1253328697 65.1253328697 65.1253328697 65.1861555638 65.1861555638 65.1861555638 67.6657096777 67.6657096777 67.6657096777 70.2748536189 70.2748536189 70.2748536189 72.6459574943 72.6459574943 72.6459574943 73.5678389734 73.5678389734 73.5678389734 71.6791178294 71.6791178294 71.6791178294 69.568991192 69.568991192 69.568991192 66.6156871023 66.6156871023 66.6156871023 64.4795550251 64.4795550251 64.4795550251 65.0516119119 65.0516119119 65.0516119119 66.3774700528 66.3774700528 66.3774700528 68.7940496263 68.7940496263 68.7940496263 71.0746221386 71.0746221386 71.0746221386 72.9013749952 72.9013749952 72.9013749952 71.9785590892 71.9785590892 71.9785590892 69.5634942322 69.5634942322 69.5634942322 68.2178612442 68.2178612442 68.2178612442 66.2944443291 66.2944443291 66.2944443291 66.2977048936 66.2977048936 66.2977048936 67.8579049959 67.8579049959 67.8579049959 70.9173430102 70.9173430102 70.9173430102 73.8934722993 73.8934722993 73.8934722993 76.2480446774 76.2480446774 76.2480446774 75.0546941614 75.0546941614 75.0546941614 72.7038823324 72.7038823324 72.7038823324 69.4893173582 69.4893173582 69.4893173582 67.4124866805 67.4124866805 67.4124866805 66.5318131811 66.5318131811 66.5318131811 67.0580612044 67.0580612044 67.0580612044 69.2066308853 69.2066308853 69.2066308853 71.3519055303 71.3519055303 71.3519055303 73.4530665379 73.4530665379 73.4530665379 72.9266685203 72.9266685203 72.9266685203 72.5148429375 72.5148429375 72.5148429375 70.108264454 70.108264454 70.108264454 68.1456773427 68.1456773427 68.1456773427 66.7854714185 66.7854714185 66.7854714185 68.1700880523 68.1700880523 68.1700880523 70.0569738007 70.0569738007 70.0569738007 72.2172464228 72.2172464228 72.2172464228 73.6412081949 73.6412081949 73.6412081949 73.9802509325 73.9802509325 73.9802509325 72.7766127921 72.7766127921 72.7766127921 70.0479343791 70.0479343791 70.0479343791 67.8771527667 67.8771527667 67.8771527667 67.5599669694 67.5599669694 67.5599669694 67.385835003 67.385835003 67.385835003 68.0881558848 68.0881558848 68.0881558848 67.8644782557 67.8644782557 67.8644782557 65.9117464413 65.9117464413 65.9117464413 63.365478456 63.365478456 63.365478456 62.3334437333 62.3334437333 62.3334437333 61.9530304374 61.9530304374 61.9530304374 61.7347054665 61.7347054665 61.7347054665 61.6414924348 61.6414924348 61.6414924348 61.6178234602 61.6178234602 61.6178234602 61.6178234602 61.6178234602 61.6178234602 </DataArray>
<DataArray Name="1 stddev of GFP" format="ascii" type="Float32">39.5955562679 70.2951099877 79.7490869888 77.5397995201 73.217990652 68.2539872364 63.2003700602 57.4250420918 52.2513398884 48.4817945621 48.3746507403 51.3124536888 54.0614458266 57.1854793085 61.6162426694 66.4195566695 70.0542756225 71.3532645651 71.4602749826 70.6510337147 67.8075086284 64.9374448475 61.278626281 58.965581041 58.7450061096 60.6088981991 63.7200469735 67.9035179084 72.0082708141 71.4639202847 69.6147023284 67.6823187881 65.336219016 63.9087465762 64.487786007 66.6155710784 68.7196968381 71.0378042093 71.5161562975 69.9909426525 68.1997882744 65.7867539615 65.1253328697 65.1861555638 67.6657096777 70.2748536189 72.6459574943 73.5678389734 71.6791178294 69.568991192 66.6156871023 64.4795550251 65.0516119119 66.3774700528 68.7940496263 71.0746221386 72.9013749952 71.9785590892 69.5634942322 68.2178612442 66.2944443291 66.2977048936 67.8579049959 70.9173430102 73.8934722993 76.2480446774 75.0546941614 72.7038823324 69.4893173582 67.4124866805 66.5318131811 67.0580612044 69.2066308853 71.3519055303 73.4530665379 72.9266685203 72.5148429375 70.108264454 68.1456773427 66.7854714185 68.1700880523 70.0569738007 72.2172464228 73.6412081949 73.9802509325 72.7766127921 70.0479343791 67.8771527667 67.5599669694 67.385835003 68.0881558848 67.8644782557 65.9117464413 63.365478456 62.3334437333 61.9530304374 61.7347054665 61.6414924348 61.6178234602 61.6178234602 </DataArray>
<DataArray Name="GFP variance" format="ascii" type="Float32">1567.80807617 4941.40248818 6359.91687554 6012.42050962 5360.87415511 4658.60677366 3994.28677575 3297.63545924 2730.20252013 2350.48440396 2340.10683424 2632.96790357 2922.63992486 3270.17904374 3796.56136069 4411.55750817 4907.60153299 5091.28836409 5106.5709006 4991.56856495 4597.85822639 4216.87174333 3755.07003888 3476.9397475 3450.97574282 3673.43854091 4060.2443863 4610.88774434 5185.19106563 5107.09190246 4846.20678027 4580.89627653 4268.82151531 4084.32788894 4158.67454408 4437.6343101 4722.39673352 5046.36962688 5114.56061156 4898.73205339 4651.21112067 4327.89699679 4241.30898139 4249.23487719 4578.64826618 4938.55505115 5277.43514027 5412.22693122 5137.8959328 4839.84453547 4437.64976811 4157.61301623 4231.71221234 4405.96853061 4732.62126398 5051.60191214 5314.61047619 5180.91296856 4839.0797298 4653.67659273 4394.9533489 4395.38567416 4604.69527043 5029.26953962 5460.24524845 5813.76431712 5633.20711566 5285.8545062 4828.76522691 4544.44336044 4426.48216517 4496.7835725 4789.55775849 5091.0944228 5395.35298382 5318.29898147 5258.40244626 4915.16874475 4643.83334049 4460.29919259 4647.16090505 4907.97957811 5215.3306809 5423.02754441 5473.07752803 5296.43536949 4906.71311077 4607.30786771 4564.3491369 4540.85075906 4635.9969718 4605.58740892 4344.35831894 4015.18385995 3885.45820765 3838.17798038 3811.17385903 3799.67358959 3796.75616797 3796.75616797 </DataArray>
<DataArray Name="GFP median" format="ascii" type="Float32">52.0 170.0 203.0 194.0 177.0 155.0 133.0 111.0 92.0 77.0 70.0 70.0 69.0 70.0 75.0 83.0 91.0 96.0 97.0 97.0 97.0 93.0 87.0 82.0 78.0 76.0 77.0 78.0 81.0 88.0 90.0 86.0 83.0 80.0 78.0 76.0 75.0 77.0 84.0 87.0 82.0 79.0 76.0 74.0 73.0 74.0 74.0 81.0 83.0 79.0 74.0 73.0 72.0 70.0 69.0 68.0 75.0 81.0 77.0 73.0 71.0 68.0 66.0 67.0 65.0 69.0 80.0 75.0 73.0 68.0 66.0 63.0 63.0 59.0 61.0 75.0 68.0 66.0 63.0 60.0 60.0 59.0 56.0 55.0 73.0 68.0 64.0 60.0 59.0 55.0 57.0 38.0 0.0 0.0 0.0 0.0 0.0 0.0 0.0 0.0 </DataArray>
<DataArray Name="GFP mean" format="ascii" type="Float32">59.3605634608 182.983770846 215.523874926 206.600440125 188.542804502 166.771967596 144.276374416 122.379278901 102.798600864 87.8028553242 82.2013864755 83.3374224196 83.6029583425 84.6913064116 89.6411605642 98.0211649916 105.557752801 110.17167595 110.647011589 108.866471893 110.24264489 105.247440273 98.691696923 92.2543690029 88.8798096284 87.7136159692 89.0731300619 92.4037502967 94.6397942292 102.439527806 102.543561064 97.1174029108 93.3612402816 89.5419847328 88.3479406919 87.8080627182 88.2648829065 88.5937183023 95.6773207948 98.4160777051 92.5542060031 88.3768240815 85.2999835295 83.4478154004 83.8492543329 84.6354234705 84.591627645 91.6066837107 94.1807099723 89.0839447162 82.3407791926 80.9478007272 79.4847064446 78.9787727663 79.6800029203 77.9958965366 83.9813814029 90.0306386542 85.3918538015 80.4272883588 77.863743726 75.4718535803 75.0424789432 77.2316666359 76.2591345817 79.7011947306 89.1636889374 83.5693857894 80.110130025 74.9597121518 73.8982631647 71.4286599027 72.2857038042 70.3268948399 71.8193375827 83.3221514758 77.1936883483 74.0369143134 70.2167237056 67.9073296621 68.5315069497 69.4622299844 68.2976907719 66.9111219365 81.3768436433 75.9952121667 71.7974098057 68.0809268641 67.1239705964 64.551281591 66.0692564145 55.7682094827 48.1677371489 41.4187051147 39.173082559 38.3953397993 37.9598235913 37.776183668 37.7297678743 37.7297678743 </DataArray>
<DataArray Name="GFP +1 stddev" format="ascii" type="Float32">98.9561197287 253.278880834 295.272961915 284.140239645 261.760795154 235.025954832 207.476744476 179.804320993 155.049940752 136.284649886 130.576037216 134.649876108 137.664404169 141.87678572 151.257403234 164.440721661 175.612028423 181.524940515 182.107286571 179.517505608 178.050153519 170.184885121 159.970323204 151.219950044 147.624815738 148.322514168 152.793177035 160.307268205 166.648065043 173.903448091 172.158263392 164.799721699 158.697459298 153.450731309 152.835726699 154.423633797 156.984579745 159.631522512 167.193477092 168.407020358 160.753994277 154.163578043 150.425316399 148.633970964 151.514964011 154.910277089 157.237585139 165.174522684 165.859827802 158.652935908 148.956466295 145.427355752 144.536318357 145.356242819 148.474052547 149.070518675 156.882756398 162.009197743 154.955348034 148.645149603 144.158188055 141.769558474 142.900383939 148.149009646 150.152606881 155.949239408 164.218383099 156.273268122 149.599447383 142.372198832 140.430076346 138.486721107 141.49233469 141.67880037 145.272404121 156.248819996 149.708531286 144.145178767 138.362401048 134.692801081 136.701595002 139.519203785 140.514937195 140.552330131 155.357094576 148.771824959 141.845344185 135.958079631 134.683937566 131.937116594 134.157412299 123.632687738 114.07948359 104.784183571 101.506526292 100.348370237 99.6945290578 99.4176761028 99.3475913345 99.3475913345 </DataArray>
<DataArray Name="GFP -1 stddev" format="ascii" type="Float32">19.7650071928 112.688660858 135.774787938 129.060640605 115.32481385 98.5179803596 81.0760043556 64.9542368096 50.5472609751 39.3210607621 33.8267357352 32.0249687308 29.5415125159 27.5058271031 28.0249178948 31.6016083221 35.5034771782 38.8184113849 39.186736606 38.2154381784 42.4351362617 40.3099954255 37.4130706421 33.2887879619 30.1348035188 27.1047177701 25.3530830885 24.5002323883 22.6315234151 30.9756075212 32.9288587351 29.4350841228 28.0250212655 25.6332381566 23.8601546849 21.1924916398 19.5451860684 17.555914093 24.1611644973 28.4251350526 24.3544177287 22.59007012 20.1746506598 18.2616598366 16.1835446553 14.3605698516 11.9456701506 18.0388447373 22.5015921429 19.5149535242 15.7250920903 16.4682457022 14.4330945327 12.6013027135 10.8859532941 6.92127439804 11.0800064077 18.052079565 15.8283595693 12.2094271147 11.5692993969 9.17414868665 7.18457394736 6.31432362578 2.36566228232 3.45315005321 14.108994776 10.865503457 10.6208126667 7.54722547131 7.36644998359 4.3705986983 3.07907291895 -1.02501069039 -1.63372895519 10.3954829556 4.67884541075 3.92864985942 2.07104636295 1.12185824363 0.361418897384 -0.594743816331 -3.91955565093 -6.73008625847 7.39659271078 3.21859937464 1.74947542667 0.203774097386 -0.435996372997 -2.834553412 -2.01889947032 -12.096268773 -17.7440092924 -21.9467733413 -23.1603611743 -23.5576906382 -23.7748818752 -23.8653087667 -23.8880555858 -23.8880555858 </DataArray>
<DataArray Name="time" format="ascii" type="Float32">0.0 10.9756736384 21.9513472769 32.9270209153 43.9026945538 54.8783681922 65.8540418307 76.8297154691 87.8053891076 98.781062746 109.756736384 120.732410023 131.708083661 142.6837573 153.659430938 164.635104577 175.610778215 186.586451854 197.562125492 208.537799131 219.513472769 230.489146407 241.464820046 252.440493684 263.416167323 274.391840961 285.3675146 296.343188238 307.318861877 318.294535515 329.270209153 340.245882792 351.22155643 362.197230069 373.172903707 384.148577346 395.124250984 406.099924623 417.075598261 428.051271899 439.026945538 450.002619176 460.978292815 471.953966453 482.929640092 493.90531373 504.880987369 515.856661007 526.832334645 537.808008284 548.783681922 559.759355561 570.735029199 581.710702838 592.686376476 603.662050115 614.637723753 625.613397392 636.58907103 647.564744668 658.540418307 669.516091945 680.491765584 691.467439222 702.443112861 713.418786499 724.394460138 735.370133776 746.345807414 757.321481053 768.297154691 779.27282833 790.248501968 801.224175607 812.199849245 823.175522884 834.151196522 845.12687016 856.102543799 867.078217437 878.053891076 889.029564714 900.005238353 910.980911991 921.95658563 932.932259268 943.907932907 954.883606545 965.859280183 976.834953822 987.81062746 998.786301099 1009.76197474 1020.73764838 1031.71332201 1042.68899565 1053.66466929 1064.64034293 1075.61601657 1086.59169021 </DataArray>
<DataArray Name="GFP coefficient of variation" format="ascii" type="Float32">0.66703471058 0.384160352925 0.370024374404 0.375312847704 0.388336170374 0.40926534729 0.438050722553 0.469238277977 0.50828843437 0.552166491432 0.588489474624 0.615719231517 0.646645129531 0.675222543275 0.68736551693 0.677604236546 0.66365827013 0.647655252131 0.645840081505 0.648969627527 0.615075125384 0.616997854571 0.620909642771 0.63916301936 0.660948829157 0.69098620014 0.715367776221 0.73485673136 0.760866730539 0.697620555418 0.6788793134 0.696912363381 0.699821669239 0.713729394841 0.729929701835 0.758649821169 0.778562148107 0.80183793581 0.747472396838 0.711173867975 0.736863198547 0.744389206618 0.763485878602 0.781160720039 0.806992384321 0.830324357547 0.858784249893 0.803083748842 0.761080669815 0.780937478842 0.809024249655 0.796557218921 0.8184167096 0.840446967303 0.863379105232 0.911261044422 0.868065918628 0.799489597821 0.814638529735 0.848192978232 0.851416091196 0.878442780302 0.904259906542 0.91824177956 0.968978637178 0.956673798117 0.841762998546 0.869982250624 0.867422351413 0.899316242623 0.900316331289 0.938811694014 0.957404123403 1.01457494594 1.02274775861 0.87523746361 0.939388238717 0.946936607288 0.970504941649 0.983479570626 0.994726237413 1.0085621181 1.05738928515 1.10058247514 0.909106910767 0.957647340104 0.975633167946 0.997006884207 1.00649539008 1.04391165198 1.03055732091 1.21690258456 1.36837954911 1.52987589256 1.59123152076 1.61355598782 1.62631697479 1.63175541967 1.63313550365 1.63313550365 </DataArray>
</PointData>
<CellData/>
<Cells>
<DataArray Name="connectivity" format="ascii" type="Int32">0</DataArray>
<DataArray Name="offsets" format="ascii" type="Int32">0</DataArray>
<DataArray Name="types" format="ascii" type="UInt8">11</DataArray>
</Cells>
</Piece>
</UnstructuredGrid>
</VTKFile>
