<?xml version="1.0" ?>
<VTKFile byte_order="LittleEndian" type="UnstructuredGrid" version="0.1">
<UnstructuredGrid>
<Piece NumberOfCells="0" NumberOfPoints="101">
<Points>
<DataArray NumberOfComponents="3" format="ascii" type="Float32">17.8057087579 17.8057087579 17.8057087579 94.130510888 94.130510888 94.130510888 109.534037076 109.534037076 109.534037076 90.5397200217 90.5397200217 90.5397200217 72.8978832337 72.8978832337 72.8978832337 56.6637660374 56.6637660374 56.6637660374 40.3269043005 40.3269043005 40.3269043005 25.3697140848 25.3697140848 25.3697140848 14.5280781987 14.5280781987 14.5280781987 13.8259984341 13.8259984341 13.8259984341 67.1120030586 67.1120030586 67.1120030586 89.5192337321 89.5192337321 89.5192337321 54.5601381154 54.5601381154 54.5601381154 27.2679838529 27.2679838529 27.2679838529 11.7925802465 11.7925802465 11.7925802465 5.04727964479 5.04727964479 5.04727964479 2.13185849134 2.13185849134 2.13185849134 0.876692680951 0.876692680951 0.876692680951 0.387305272637 0.387305272637 0.387305272637 31.62424226 31.62424226 31.62424226 80.4847120478 80.4847120478 80.4847120478 52.1749096546 52.1749096546 52.1749096546 31.717119206 31.717119206 31.717119206 18.7371434386 18.7371434386 18.7371434386 10.0976190316 10.0976190316 10.0976190316 4.74501092306 4.74501092306 4.74501092306 1.64679458648 1.64679458648 1.64679458648 0.501097788752 0.501097788752 0.501097788752 30.0758815458 30.0758815458 30.0758815458 71.2740092584 71.2740092584 71.2740092584 48.8377243007 48.8377243007 48.8377243007 30.4724200057 30.4724200057 30.4724200057 17.5304006768 17.5304006768 17.5304006768 8.53056529149 8.53056529149 8.53056529149 3.27140302619 3.27140302619 3.27140302619 0.880374339909 0.880374339909 0.880374339909 -0.149868323586 -0.149868323586 -0.149868323586 10.2704347296 10.2704347296 10.2704347296 56.1483211521 56.1483211521 56.1483211521 46.6529014119 46.6529014119 46.6529014119 27.2436305063 27.2436305063 27.2436305063 13.838865886 13.838865886 13.838865886 6.42970668435 6.42970668435 6.42970668435 2.45316360782 2.45316360782 2.45316360782 0.328766360797 0.328766360797 0.328766360797 -0.493042172846 -0.493042172846 -0.493042172846 3.4111226685 3.4111226685 3.4111226685 47.0774722302 47.0774722302 47.0774722302 42.088634733 42.088634733 42.088634733 23.0178469112 23.0178469112 23.0178469112 13.145314008 13.145314008 13.145314008 6.74958218051 6.74958218051 6.74958218051 2.59681369618 2.59681369618 2.59681369618 0.18567651048 0.18567651048 0.18567651048 -0.86777889861 -0.86777889861 -0.86777889861 0.0969069245349 0.0969069245349 0.0969069245349 33.9346186785 33.9346186785 33.9346186785 40.368965319 40.368965319 40.368965319 24.6144614522 24.6144614522 24.6144614522 13.3609428615 13.3609428615 13.3609428615 5.80933975561 5.80933975561 5.80933975561 1.41013045672 1.41013045672 1.41013045672 -0.487719857787 -0.487719857787 -0.487719857787 -1.39973073399 -1.39973073399 -1.39973073399 -1.27987639289 -1.27987639289 -1.27987639289 21.246934588 21.246934588 21.246934588 38.8202756273 38.8202756273 38.8202756273 20.2214582248 20.2214582248 20.2214582248 10.3988652552 10.3988652552 10.3988652552 3.98055213574 3.98055213574 3.98055213574 0.480774453986 0.480774453986 0.480774453986 -1.01810056705 -1.01810056705 -1.01810056705 -1.71573250197 -1.71573250197 -1.71573250197 -1.61784281128 -1.61784281128 -1.61784281128 15.0868281587 15.0868281587 15.0868281587 31.3838508449 31.3838508449 31.3838508449 18.5038459064 18.5038459064 18.5038459064 9.46621624527 9.46621624527 9.46621624527 4.04486129463 4.04486129463 4.04486129463 0.640097485898 0.640097485898 0.640097485898 -1.10061411147 -1.10061411147 -1.10061411147 -2.00723436035 -2.00723436035 -2.00723436035 -1.77477167951 -1.77477167951 -1.77477167951 7.83020895002 7.83020895002 7.83020895002 28.9196299838 28.9196299838 28.9196299838 19.0040785454 19.0040785454 19.0040785454 9.00027980835 9.00027980835 9.00027980835 2.74961712235 2.74961712235 2.74961712235 -0.713799030784 -0.713799030784 -0.713799030784 -2.06078962595 -2.06078962595 -2.06078962595 -2.37244890502 -2.37244890502 -2.37244890502 -2.21642687785 -2.21642687785 -2.21642687785 -2.45230435549 -2.45230435549 -2.45230435549 -3.06518879405 -3.06518879405 -3.06518879405 -3.27744087141 -3.27744087141 -3.27744087141 -3.35168604715 -3.35168604715 -3.35168604715 -3.38141018985 -3.38141018985 -3.38141018985 -3.39260742633 -3.39260742633 -3.39260742633 -3.39947976429 -3.39947976429 -3.39947976429 -3.40018088842 -3.40018088842 -3.40018088842 -3.40158106371 -3.40158106371 -3.40158106371 </DataArray>
</Points>
<PointData>
<DataArray Name="Points" format="ascii" type="Float32">17.8057087579 17.8057087579 17.8057087579 94.130510888 94.130510888 94.130510888 109.534037076 109.534037076 109.534037076 90.5397200217 90.5397200217 90.5397200217 72.8978832337 72.8978832337 72.8978832337 56.6637660374 56.6637660374 56.6637660374 40.3269043005 40.3269043005 40.3269043005 25.3697140848 25.3697140848 25.3697140848 14.5280781987 14.5280781987 14.5280781987 13.8259984341 13.8259984341 13.8259984341 67.1120030586 67.1120030586 67.1120030586 89.5192337321 89.5192337321 89.5192337321 54.5601381154 54.5601381154 54.5601381154 27.2679838529 27.2679838529 27.2679838529 11.7925802465 11.7925802465 11.7925802465 5.04727964479 5.04727964479 5.04727964479 2.13185849134 2.13185849134 2.13185849134 0.876692680951 0.876692680951 0.876692680951 0.387305272637 0.387305272637 0.387305272637 31.62424226 31.62424226 31.62424226 80.4847120478 80.4847120478 80.4847120478 52.1749096546 52.1749096546 52.1749096546 31.717119206 31.717119206 31.717119206 18.7371434386 18.7371434386 18.7371434386 10.0976190316 10.0976190316 10.0976190316 4.74501092306 4.74501092306 4.74501092306 1.64679458648 1.64679458648 1.64679458648 0.501097788752 0.501097788752 0.501097788752 30.0758815458 30.0758815458 30.0758815458 71.2740092584 71.2740092584 71.2740092584 48.8377243007 48.8377243007 48.8377243007 30.4724200057 30.4724200057 30.4724200057 17.5304006768 17.5304006768 17.5304006768 8.53056529149 8.53056529149 8.53056529149 3.27140302619 3.27140302619 3.27140302619 0.880374339909 0.880374339909 0.880374339909 -0.149868323586 -0.149868323586 -0.149868323586 10.2704347296 10.2704347296 10.2704347296 56.1483211521 56.1483211521 56.1483211521 46.6529014119 46.6529014119 46.6529014119 27.2436305063 27.2436305063 27.2436305063 13.838865886 13.838865886 13.838865886 6.42970668435 6.42970668435 6.42970668435 2.45316360782 2.45316360782 2.45316360782 0.328766360797 0.328766360797 0.328766360797 -0.493042172846 -0.493042172846 -0.493042172846 3.4111226685 3.4111226685 3.4111226685 47.0774722302 47.0774722302 47.0774722302 42.088634733 42.088634733 42.088634733 23.0178469112 23.0178469112 23.0178469112 13.145314008 13.145314008 13.145314008 6.74958218051 6.74958218051 6.74958218051 2.59681369618 2.59681369618 2.59681369618 0.18567651048 0.18567651048 0.18567651048 -0.86777889861 -0.86777889861 -0.86777889861 0.0969069245349 0.0969069245349 0.0969069245349 33.9346186785 33.9346186785 33.9346186785 40.368965319 40.368965319 40.368965319 24.6144614522 24.6144614522 24.6144614522 13.3609428615 13.3609428615 13.3609428615 5.80933975561 5.80933975561 5.80933975561 1.41013045672 1.41013045672 1.41013045672 -0.487719857787 -0.487719857787 -0.487719857787 -1.39973073399 -1.39973073399 -1.39973073399 -1.27987639289 -1.27987639289 -1.27987639289 21.246934588 21.246934588 21.246934588 38.8202756273 38.8202756273 38.8202756273 20.2214582248 20.2214582248 20.2214582248 10.3988652552 10.3988652552 10.3988652552 3.98055213574 3.98055213574 3.98055213574 0.480774453986 0.480774453986 0.480774453986 -1.01810056705 -1.01810056705 -1.01810056705 -1.71573250197 -1.71573250197 -1.71573250197 -1.61784281128 -1.61784281128 -1.61784281128 15.0868281587 15.0868281587 15.0868281587 31.3838508449 31.3838508449 31.3838508449 18.5038459064 18.5038459064 18.5038459064 9.46621624527 9.46621624527 9.46621624527 4.04486129463 4.04486129463 4.04486129463 0.640097485898 0.640097485898 0.640097485898 -1.10061411147 -1.10061411147 -1.10061411147 -2.00723436035 -2.00723436035 -2.00723436035 -1.77477167951 -1.77477167951 -1.77477167951 7.83020895002 7.83020895002 7.83020895002 28.9196299838 28.9196299838 28.9196299838 19.0040785454 19.0040785454 19.0040785454 9.00027980835 9.00027980835 9.00027980835 2.74961712235 2.74961712235 2.74961712235 -0.713799030784 -0.713799030784 -0.713799030784 -2.06078962595 -2.06078962595 -2.06078962595 -2.37244890502 -2.37244890502 -2.37244890502 -2.21642687785 -2.21642687785 -2.21642687785 -2.45230435549 -2.45230435549 -2.45230435549 -3.06518879405 -3.06518879405 -3.06518879405 -3.27744087141 -3.27744087141 -3.27744087141 -3.35168604715 -3.35168604715 -3.35168604715 -3.38141018985 -3.38141018985 -3.38141018985 -3.39260742633 -3.39260742633 -3.39260742633 -3.39947976429 -3.39947976429 -3.39947976429 -3.40018088842 -3.40018088842 -3.40018088842 -3.40158106371 -3.40158106371 -3.40158106371 </DataArray>
<DataArray Name="CFP -1 stddev" format="ascii" type="Float32">17.8057087579 94.130510888 109.534037076 90.5397200217 72.8978832337 56.6637660374 40.3269043005 25.3697140848 14.5280781987 13.8259984341 67.1120030586 89.5192337321 54.5601381154 27.2679838529 11.7925802465 5.04727964479 2.13185849134 0.876692680951 0.387305272637 31.62424226 80.4847120478 52.1749096546 31.717119206 18.7371434386 10.0976190316 4.74501092306 1.64679458648 0.501097788752 30.0758815458 71.2740092584 48.8377243007 30.4724200057 17.5304006768 8.53056529149 3.27140302619 0.880374339909 -0.149868323586 10.2704347296 56.1483211521 46.6529014119 27.2436305063 13.838865886 6.42970668435 2.45316360782 0.328766360797 -0.493042172846 3.4111226685 47.0774722302 42.088634733 23.0178469112 13.145314008 6.74958218051 2.59681369618 0.18567651048 -0.86777889861 0.0969069245349 33.9346186785 40.368965319 24.6144614522 13.3609428615 5.80933975561 1.41013045672 -0.487719857787 -1.39973073399 -1.27987639289 21.246934588 38.8202756273 20.2214582248 10.3988652552 3.98055213574 0.480774453986 -1.01810056705 -1.71573250197 -1.61784281128 15.0868281587 31.3838508449 18.5038459064 9.46621624527 4.04486129463 0.640097485898 -1.10061411147 -2.00723436035 -1.77477167951 7.83020895002 28.9196299838 19.0040785454 9.00027980835 2.74961712235 -0.713799030784 -2.06078962595 -2.37244890502 -2.21642687785 -2.45230435549 -3.06518879405 -3.27744087141 -3.35168604715 -3.38141018985 -3.39260742633 -3.39947976429 -3.40018088842 -3.40158106371 </DataArray>
<DataArray Name="1 stddev of CFP" format="ascii" type="Float32">21.5259579087 23.382089112 14.3207379244 15.8140799783 17.1860417663 18.2327339626 18.9913573505 18.378482336 16.8171024504 15.9163281006 25.0730544127 24.5825743555 25.7214791302 24.5550724474 20.5364694511 16.7382399548 13.3512864471 10.458261574 8.3155042853 32.5203269656 27.917020213 28.5485699523 26.8955068223 23.8531050147 20.3475994611 16.5418202296 12.7511121266 9.24472228704 31.2798051128 36.1138784248 33.2850115868 30.169756577 26.0942783715 21.4941122416 16.9888012821 13.1269064528 9.98086432378 27.3128482756 41.0321634825 37.1232085061 31.8545211132 26.9692362614 22.2796061217 17.9985322292 14.1576990914 10.7143280013 27.8884615049 44.3194997048 39.6354028189 34.8948124167 29.1584292817 23.8479292585 18.8431845468 14.4245765859 10.7465807419 23.1745347862 47.7385643836 44.4372260597 37.2191558107 30.5192769422 24.3434760739 19.1472484607 14.7938442574 11.3016567593 14.7006486965 45.2877011791 46.589191665 38.8607060581 31.505170448 25.5725129008 20.3443200572 15.8112379368 11.8875289704 14.0584275365 45.272532262 50.7891817611 41.7088803851 33.9941339336 27.070774987 21.1182990471 16.0798327501 11.9800070327 9.40511624985 38.1466442324 53.6531310777 43.6895206634 35.0002489541 27.5737200297 21.5421386639 16.6423720602 12.6541194277 9.43870103936 9.34730335037 8.9905971669 8.81319870801 8.74121412997 8.71064627099 8.69885055064 8.69153215406 8.69078210868 8.68928233127 </DataArray>
<DataArray Name="CFP coefficient of variation" format="ascii" type="Float32">0.547293306718 0.198975166169 0.115625238707 0.148693135349 0.19077811903 0.243439065411 0.320160382687 0.420096914607 0.536513176894 0.535140654919 0.271986101657 0.215444213966 0.320390644991 0.473825246916 0.635232697626 0.768319519683 0.862311016281 0.922655825402 0.95549652442 0.506984883649 0.25753297139 0.353658812669 0.45886882477 0.560060245736 0.668334814741 0.777091719805 0.885622638117 0.948583312143 0.509811018608 0.336293777668 0.405308118721 0.497504513807 0.598154048139 0.715881535044 0.838530600362 0.937148804758 1.01524447 0.726728643471 0.422226372268 0.443124042671 0.539010446863 0.660879453888 0.776041080196 0.880050846279 0.977305274231 1.04823680515 0.891016997235 0.484912123088 0.484990756774 0.602542049039 0.689263573723 0.779407479135 0.878879948275 0.987291355649 1.08784252507 0.99583580056 0.584507210247 0.523985635215 0.601924284204 0.695513310524 0.807336741336 0.931405143506 1.03409168299 1.14135944163 1.09536533099 0.680663546992 0.545480415017 0.657740056238 0.751840960407 0.865308314693 0.976913696419 1.06882249124 1.16867546527 1.13004556032 0.750049900239 0.618076029938 0.692692109358 0.782187299313 0.870005509191 0.970581587438 1.07347606961 1.20127144439 1.23259391016 0.82969236892 0.649767918475 0.696873703452 0.795450644311 0.909323399712 1.03427056805 1.14132825674 1.23074547077 1.30688766838 1.35566420783 1.5172957881 1.59204917703 1.621888595 1.634501857 1.63936147418 1.64237454846 1.64268326923 1.64330053677 </DataArray>
<DataArray Name="time" format="ascii" type="Float32">0.0 10.9341689025 21.868337805 32.8025067075 43.73667561 54.6708445125 65.605013415 76.5391823175 87.47335122 98.4075201224 109.341689025 120.275857927 131.21002683 142.144195732 153.078364635 164.012533537 174.94670244 185.880871342 196.815040245 207.749209147 218.68337805 229.617546952 240.551715855 251.485884757 262.42005366 273.354222562 284.288391465 295.222560367 306.15672927 317.090898172 328.025067075 338.959235977 349.89340488 360.827573782 371.761742685 382.695911587 393.63008049 404.564249392 415.498418295 426.432587197 437.3667561 448.300925002 459.235093905 470.169262807 481.10343171 492.037600612 502.971769515 513.905938417 524.84010732 535.774276222 546.708445125 557.642614027 568.57678293 579.510951832 590.445120735 601.379289637 612.31345854 623.247627442 634.181796345 645.115965247 656.05013415 666.984303052 677.918471955 688.852640857 699.78680976 710.720978662 721.655147565 732.589316467 743.52348537 754.457654272 765.391823175 776.325992077 787.26016098 798.194329882 809.128498785 820.062667687 830.99683659 841.931005492 852.865174395 863.799343297 874.7335122 885.667681102 896.601850005 907.536018907 918.47018781 929.404356712 940.338525615 951.272694517 962.206863419 973.141032322 984.075201224 995.009370127 1005.94353903 1016.87770793 1027.81187683 1038.74604574 1049.68021464 1060.61438354 1071.54855244 1082.48272135 1093.41689025 </DataArray>
<DataArray Name="CFP variance" format="ascii" type="Float32">463.366863889 546.72209124 205.083534699 250.08512556 295.360031594 332.43258775 360.671654014 337.768612973 282.814934827 253.329500206 628.65805758 604.302961945 661.594488645 602.951582898 421.746577514 280.168676784 178.256849793 109.37523515 69.1476115188 1057.57166595 779.360017572 815.02084632 723.36828723 568.970618842 414.024803829 273.63181651 162.590860465 85.4648901646 978.426207896 1304.21221488 1107.89199633 910.214211914 680.911363728 461.996861054 288.619369001 172.31567302 99.6176526498 745.991680924 1683.63844006 1378.13260979 1014.71051535 727.339704524 496.380848937 323.947162406 200.440443564 114.79682452 777.766285109 1964.21805409 1570.96515662 1217.6479336 850.213998175 568.723729917 355.065603865 208.068409683 115.488997643 537.059062557 2278.9705294 1974.66705988 1385.26555926 931.426265076 592.604827361 366.617123614 218.857827913 127.727445505 216.109072097 2050.97587809 2170.55278 1510.15447534 992.575764959 653.95341606 413.891358589 249.995245093 141.313345022 197.6393848 2049.60217742 2579.54098396 1739.63070298 1155.6011419 732.826858395 445.982554645 258.561021271 143.520568503 88.4562116731 1455.16646619 2878.65847444 1908.7742158 1225.01742685 760.310036279 464.063738213 276.968547789 160.126738491 89.0890773104 87.3720799239 80.8308374174 77.6724714668 76.4088244661 75.8753584583 75.6700009024 75.5427311851 75.5296936606 75.5036274325 </DataArray>
<DataArray Name="CFP median" format="ascii" type="Float32">49.0 116.0 124.0 107.0 90.0 75.0 59.0 43.0 29.0 28.0 91.0 114.0 79.0 50.0 29.0 18.0 12.0 8.0 6.0 66.0 113.0 84.0 60.0 42.0 28.0 18.0 11.0 7.0 60.0 115.0 88.0 63.0 43.0 27.0 17.0 11.0 7.0 32.0 107.0 92.0 63.0 41.0 26.0 17.0 11.0 7.0 27.0 105.0 91.0 63.0 43.0 29.0 18.0 11.0 7.0 13.0 94.0 98.0 69.0 46.0 28.0 17.0 11.0 7.0 9.0 73.0 100.0 67.0 44.0 27.0 17.0 11.0 7.0 7.0 68.0 101.0 71.0 47.0 30.0 18.0 11.0 6.0 5.0 47.0 105.0 75.0 48.0 28.0 16.0 10.0 6.0 4.0 4.0 2.0 0.0 0.0 0.0 0.0 0.0 0.0 0.0 </DataArray>
<DataArray Name="CFP +1 stddev" format="ascii" type="Float32">60.8576245754 140.894689112 138.175512924 122.167879978 107.269966766 93.1292339626 78.3096190014 62.1266787567 48.1622830995 45.6586546353 117.258111884 138.684382443 106.003096376 76.3781287477 52.8655191486 38.5237595544 28.8344313856 21.7932158289 17.0183138432 96.6648961912 136.318752474 109.272049559 85.5081328507 66.443353468 50.7928179538 37.8286513824 27.1490188397 18.9905423628 92.6354917714 143.501766108 115.407747474 90.8119331597 69.7189574197 51.5187897747 37.2490055903 27.1341872455 19.811860324 64.8961312808 138.212648117 120.899318424 90.9526727327 67.7773384088 50.9889189277 38.4502280663 28.6441645437 20.9356138298 59.1880456783 135.71647164 121.359440371 92.8074717447 71.4621725713 54.4454406974 40.2831827898 29.0348296823 20.6253825852 46.4459764969 129.411747446 129.243417438 99.0527730736 74.3994967459 54.4962919034 39.704627378 29.099968657 21.2035827846 28.1214210001 111.822336946 131.998658957 97.9428703411 73.4092061512 55.1255779373 41.1694145684 30.6043753065 22.0593254389 26.4990122618 105.631892683 132.962214367 101.921606677 77.4544841125 58.1864112685 42.8766955802 31.0590513887 21.952779705 17.0354608202 84.1234974148 136.225892139 106.383119872 79.0007777166 57.8970571818 42.3704782969 31.2239544944 22.9357899504 16.6609752009 16.2423023453 14.9160055397 14.3489565446 14.1307422128 14.0398823521 14.005093675 13.9835845438 13.9813833289 13.9769835988 </DataArray>
<DataArray Name="CFP mean" format="ascii" type="Float32">39.3316666667 117.5126 123.854775 106.3538 90.083925 74.8965 59.3182616509 43.7481964207 31.3451806491 29.7423265347 92.1850574713 114.101808088 80.2816172456 51.8230563003 32.3290496976 21.7855195996 15.4831449385 11.3349542549 8.70280955793 64.1445692256 108.401732261 80.7234796069 58.6126260284 42.5902484533 30.4452184927 21.2868311527 14.3979067131 9.7458200758 61.3556866586 107.387887683 82.1227358875 60.6421765827 43.6246790483 30.0246775331 20.2602043082 14.0072807927 9.8309960002 37.5832830052 97.1804846347 83.776109918 59.0981516195 40.8081021474 28.709312806 20.451695837 14.4864654522 10.2212858285 31.2995841734 91.396971935 81.7240375519 57.9126593279 42.3037432896 30.597511439 21.439998243 14.6102530964 9.87880184332 23.2714417107 81.673183062 84.8061913787 61.8336172629 43.8802198037 30.1528158295 20.5573789174 14.3061243996 9.9019260253 13.4207723036 66.5346357672 85.4094672923 59.0821642829 41.9040357032 29.5530650365 20.8250945112 14.7931373697 10.1717964684 12.4405847253 60.3593604207 82.173032606 60.2127262915 43.4603501789 31.1156362816 21.758396533 14.9792186386 9.97277267234 7.63034457034 45.9768531824 82.5727610615 62.6935992088 44.0005287625 30.3233371521 20.8283396331 14.5815824342 10.2816705227 7.22227416151 6.89499899489 5.92540837284 5.5357578366 5.38952808283 5.32923608114 5.30624312431 5.29205238977 5.29060122026 5.28770126756 </DataArray>
</PointData>
<CellData/>
<Cells>
<DataArray Name="connectivity" format="ascii" type="Int32">0</DataArray>
<DataArray Name="offsets" format="ascii" type="Int32">0</DataArray>
<DataArray Name="types" format="ascii" type="UInt8">11</DataArray>
</Cells>
</Piece>
</UnstructuredGrid>
</VTKFile>
