<?xml version="1.0" ?>
<VTKFile byte_order="LittleEndian" type="UnstructuredGrid" version="0.1">
<UnstructuredGrid>
<Piece NumberOfCells="0" NumberOfPoints="100">
<Points>
<DataArray NumberOfComponents="3" format="ascii" type="Float32">14.738567183 14.738567183 14.738567183 76.3358124961 76.3358124961 76.3358124961 112.095230199 112.095230199 112.095230199 92.4998884519 92.4998884519 92.4998884519 74.2042165133 74.2042165133 74.2042165133 57.1423493542 57.1423493542 57.1423493542 41.8582922489 41.8582922489 41.8582922489 28.5470696765 28.5470696765 28.5470696765 17.6547975884 17.6547975884 17.6547975884 9.94129736904 9.94129736904 9.94129736904 43.8654764785 43.8654764785 43.8654764785 93.5378849339 93.5378849339 93.5378849339 59.7695682118 59.7695682118 59.7695682118 32.9144193331 32.9144193331 32.9144193331 16.3750506254 16.3750506254 16.3750506254 7.5872883672 7.5872883672 7.5872883672 3.14518251486 3.14518251486 3.14518251486 1.20611856319 1.20611856319 1.20611856319 0.434961956645 0.434961956645 0.434961956645 5.87774546683 5.87774546683 5.87774546683 70.5525926851 70.5525926851 70.5525926851 68.831561199 68.831561199 68.831561199 43.913459095 43.913459095 43.913459095 26.7792718315 26.7792718315 26.7792718315 14.9975430491 14.9975430491 14.9975430491 7.61595870105 7.61595870105 7.61595870105 3.26328219615 3.26328219615 3.26328219615 1.02031690935 1.02031690935 1.02031690935 1.05497360675 1.05497360675 1.05497360675 37.9980926478 37.9980926478 37.9980926478 68.588562317 68.588562317 68.588562317 44.4150999653 44.4150999653 44.4150999653 26.7962645368 26.7962645368 26.7962645368 15.3583390831 15.3583390831 15.3583390831 8.05415793188 8.05415793188 8.05415793188 3.02052210441 3.02052210441 3.02052210441 0.70002010578 0.70002010578 0.70002010578 -0.438166014684 -0.438166014684 -0.438166014684 11.5680499237 11.5680499237 11.5680499237 56.0551732583 56.0551732583 56.0551732583 45.4935461457 45.4935461457 45.4935461457 27.1071809547 27.1071809547 27.1071809547 15.3829237913 15.3829237913 15.3829237913 7.1894226952 7.1894226952 7.1894226952 2.46523136641 2.46523136641 2.46523136641 0.275780321736 0.275780321736 0.275780321736 -0.591839142058 -0.591839142058 -0.591839142058 -0.372840193282 -0.372840193282 -0.372840193282 35.7479971446 35.7479971446 35.7479971446 50.6235909838 50.6235909838 50.6235909838 30.3326052042 30.3326052042 30.3326052042 18.2388266834 18.2388266834 18.2388266834 9.10862032969 9.10862032969 9.10862032969 3.46816326392 3.46816326392 3.46816326392 0.753859628088 0.753859628088 0.753859628088 -0.474155963883 -0.474155963883 -0.474155963883 -0.723463149789 -0.723463149789 -0.723463149789 14.7289240972 14.7289240972 14.7289240972 47.7833822371 47.7833822371 47.7833822371 30.8181998375 30.8181998375 30.8181998375 18.3500251547 18.3500251547 18.3500251547 9.23388700036 9.23388700036 9.23388700036 4.48474716961 4.48474716961 4.48474716961 0.884786618504 0.884786618504 0.884786618504 -0.765948992487 -0.765948992487 -0.765948992487 -1.14762524988 -1.14762524988 -1.14762524988 0.106631550515 0.106631550515 0.106631550515 29.1400730754 29.1400730754 29.1400730754 35.2995693947 35.2995693947 35.2995693947 18.2804878259 18.2804878259 18.2804878259 9.71175724047 9.71175724047 9.71175724047 3.89418210523 3.89418210523 3.89418210523 0.650932169532 0.650932169532 0.650932169532 -1.02821703706 -1.02821703706 -1.02821703706 -1.57692633487 -1.57692633487 -1.57692633487 -1.85099482686 -1.85099482686 -1.85099482686 14.3611479154 14.3611479154 14.3611479154 34.2764353886 34.2764353886 34.2764353886 19.9287451936 19.9287451936 19.9287451936 10.3674995313 10.3674995313 10.3674995313 3.96083394233 3.96083394233 3.96083394233 0.578042066372 0.578042066372 0.578042066372 -1.10362435636 -1.10362435636 -1.10362435636 -1.88379656992 -1.88379656992 -1.88379656992 -1.71173860943 -1.71173860943 -1.71173860943 1.34043609032 1.34043609032 1.34043609032 26.3887028849 26.3887028849 26.3887028849 21.4233946585 21.4233946585 21.4233946585 10.996349429 10.996349429 10.996349429 4.08900700202 4.08900700202 4.08900700202 0.265758732873 0.265758732873 0.265758732873 -1.37929933701 -1.37929933701 -1.37929933701 -2.02531612003 -2.02531612003 -2.02531612003 -2.28891382257 -2.28891382257 -2.28891382257 -3.20266169062 -3.20266169062 -3.20266169062 -3.54139313284 -3.54139313284 -3.54139313284 -3.64317027378 -3.64317027378 -3.64317027378 -3.66297058847 -3.66297058847 -3.66297058847 -3.66941308826 -3.66941308826 -3.66941308826 -3.67092365054 -3.67092365054 -3.67092365054 </DataArray>
</Points>
<PointData>
<DataArray Name="Points" format="ascii" type="Float32">14.738567183 14.738567183 14.738567183 76.3358124961 76.3358124961 76.3358124961 112.095230199 112.095230199 112.095230199 92.4998884519 92.4998884519 92.4998884519 74.2042165133 74.2042165133 74.2042165133 57.1423493542 57.1423493542 57.1423493542 41.8582922489 41.8582922489 41.8582922489 28.5470696765 28.5470696765 28.5470696765 17.6547975884 17.6547975884 17.6547975884 9.94129736904 9.94129736904 9.94129736904 43.8654764785 43.8654764785 43.8654764785 93.5378849339 93.5378849339 93.5378849339 59.7695682118 59.7695682118 59.7695682118 32.9144193331 32.9144193331 32.9144193331 16.3750506254 16.3750506254 16.3750506254 7.5872883672 7.5872883672 7.5872883672 3.14518251486 3.14518251486 3.14518251486 1.20611856319 1.20611856319 1.20611856319 0.434961956645 0.434961956645 0.434961956645 5.87774546683 5.87774546683 5.87774546683 70.5525926851 70.5525926851 70.5525926851 68.831561199 68.831561199 68.831561199 43.913459095 43.913459095 43.913459095 26.7792718315 26.7792718315 26.7792718315 14.9975430491 14.9975430491 14.9975430491 7.61595870105 7.61595870105 7.61595870105 3.26328219615 3.26328219615 3.26328219615 1.02031690935 1.02031690935 1.02031690935 1.05497360675 1.05497360675 1.05497360675 37.9980926478 37.9980926478 37.9980926478 68.588562317 68.588562317 68.588562317 44.4150999653 44.4150999653 44.4150999653 26.7962645368 26.7962645368 26.7962645368 15.3583390831 15.3583390831 15.3583390831 8.05415793188 8.05415793188 8.05415793188 3.02052210441 3.02052210441 3.02052210441 0.70002010578 0.70002010578 0.70002010578 -0.438166014684 -0.438166014684 -0.438166014684 11.5680499237 11.5680499237 11.5680499237 56.0551732583 56.0551732583 56.0551732583 45.4935461457 45.4935461457 45.4935461457 27.1071809547 27.1071809547 27.1071809547 15.3829237913 15.3829237913 15.3829237913 7.1894226952 7.1894226952 7.1894226952 2.46523136641 2.46523136641 2.46523136641 0.275780321736 0.275780321736 0.275780321736 -0.591839142058 -0.591839142058 -0.591839142058 -0.372840193282 -0.372840193282 -0.372840193282 35.7479971446 35.7479971446 35.7479971446 50.6235909838 50.6235909838 50.6235909838 30.3326052042 30.3326052042 30.3326052042 18.2388266834 18.2388266834 18.2388266834 9.10862032969 9.10862032969 9.10862032969 3.46816326392 3.46816326392 3.46816326392 0.753859628088 0.753859628088 0.753859628088 -0.474155963883 -0.474155963883 -0.474155963883 -0.723463149789 -0.723463149789 -0.723463149789 14.7289240972 14.7289240972 14.7289240972 47.7833822371 47.7833822371 47.7833822371 30.8181998375 30.8181998375 30.8181998375 18.3500251547 18.3500251547 18.3500251547 9.23388700036 9.23388700036 9.23388700036 4.48474716961 4.48474716961 4.48474716961 0.884786618504 0.884786618504 0.884786618504 -0.765948992487 -0.765948992487 -0.765948992487 -1.14762524988 -1.14762524988 -1.14762524988 0.106631550515 0.106631550515 0.106631550515 29.1400730754 29.1400730754 29.1400730754 35.2995693947 35.2995693947 35.2995693947 18.2804878259 18.2804878259 18.2804878259 9.71175724047 9.71175724047 9.71175724047 3.89418210523 3.89418210523 3.89418210523 0.650932169532 0.650932169532 0.650932169532 -1.02821703706 -1.02821703706 -1.02821703706 -1.57692633487 -1.57692633487 -1.57692633487 -1.85099482686 -1.85099482686 -1.85099482686 14.3611479154 14.3611479154 14.3611479154 34.2764353886 34.2764353886 34.2764353886 19.9287451936 19.9287451936 19.9287451936 10.3674995313 10.3674995313 10.3674995313 3.96083394233 3.96083394233 3.96083394233 0.578042066372 0.578042066372 0.578042066372 -1.10362435636 -1.10362435636 -1.10362435636 -1.88379656992 -1.88379656992 -1.88379656992 -1.71173860943 -1.71173860943 -1.71173860943 1.34043609032 1.34043609032 1.34043609032 26.3887028849 26.3887028849 26.3887028849 21.4233946585 21.4233946585 21.4233946585 10.996349429 10.996349429 10.996349429 4.08900700202 4.08900700202 4.08900700202 0.265758732873 0.265758732873 0.265758732873 -1.37929933701 -1.37929933701 -1.37929933701 -2.02531612003 -2.02531612003 -2.02531612003 -2.28891382257 -2.28891382257 -2.28891382257 -3.20266169062 -3.20266169062 -3.20266169062 -3.54139313284 -3.54139313284 -3.54139313284 -3.64317027378 -3.64317027378 -3.64317027378 -3.66297058847 -3.66297058847 -3.66297058847 -3.66941308826 -3.66941308826 -3.66941308826 -3.67092365054 -3.67092365054 -3.67092365054 </DataArray>
<DataArray Name="CFP -1 stddev" format="ascii" type="Float32">14.738567183 76.3358124961 112.095230199 92.4998884519 74.2042165133 57.1423493542 41.8582922489 28.5470696765 17.6547975884 9.94129736904 43.8654764785 93.5378849339 59.7695682118 32.9144193331 16.3750506254 7.5872883672 3.14518251486 1.20611856319 0.434961956645 5.87774546683 70.5525926851 68.831561199 43.913459095 26.7792718315 14.9975430491 7.61595870105 3.26328219615 1.02031690935 1.05497360675 37.9980926478 68.588562317 44.4150999653 26.7962645368 15.3583390831 8.05415793188 3.02052210441 0.70002010578 -0.438166014684 11.5680499237 56.0551732583 45.4935461457 27.1071809547 15.3829237913 7.1894226952 2.46523136641 0.275780321736 -0.591839142058 -0.372840193282 35.7479971446 50.6235909838 30.3326052042 18.2388266834 9.10862032969 3.46816326392 0.753859628088 -0.474155963883 -0.723463149789 14.7289240972 47.7833822371 30.8181998375 18.3500251547 9.23388700036 4.48474716961 0.884786618504 -0.765948992487 -1.14762524988 0.106631550515 29.1400730754 35.2995693947 18.2804878259 9.71175724047 3.89418210523 0.650932169532 -1.02821703706 -1.57692633487 -1.85099482686 14.3611479154 34.2764353886 19.9287451936 10.3674995313 3.96083394233 0.578042066372 -1.10362435636 -1.88379656992 -1.71173860943 1.34043609032 26.3887028849 21.4233946585 10.996349429 4.08900700202 0.265758732873 -1.37929933701 -2.02531612003 -2.28891382257 -3.20266169062 -3.54139313284 -3.64317027378 -3.66297058847 -3.66941308826 -3.67092365054 </DataArray>
<DataArray Name="1 stddev of CFP" format="ascii" type="Float32">15.7616235112 26.2633943821 14.2618280012 15.5472037467 16.8789069124 17.992870085 18.5058620018 18.3515152291 17.2992738491 15.4171637857 28.2947306453 23.5584749433 26.3093733815 25.5237084921 22.6445498387 18.8376247998 15.1274673274 11.9004181268 9.13020739845 23.9038139391 31.3665300231 29.4413341502 28.4855869101 25.9117113895 22.5822639762 18.8121347353 15.0095422169 11.4873792804 12.1205092593 34.587497901 35.4870153672 32.8349000347 29.5904459438 25.6476146174 21.4435653606 17.4444931611 13.7516786573 10.4708295646 30.0912846076 41.8740302815 37.3402132 32.6375689498 27.6015600592 22.9631079119 18.4980108579 14.4109700619 10.9713714719 18.8596342537 43.5174917228 41.8822638171 36.6515882827 30.6441510251 25.5311767212 20.6210513241 16.1137606743 12.2904343666 9.5788829639 36.084526853 46.2975780118 40.666723102 33.6067095911 27.6194811853 22.1609654792 17.4789860236 13.3863785302 10.1024482433 25.9499130153 49.9917640634 44.3104578134 37.6646910357 30.6303837451 24.5784729128 19.3067780886 14.8315865921 11.2008694676 13.1089471131 43.7722827415 50.6929449911 41.8316487861 33.9621718451 27.3011180295 21.4880697278 16.5285854034 12.3187331385 9.17164300048 32.5714470038 53.6387535348 46.5823235936 37.9210622218 30.4761318913 24.104660279 18.6933408433 14.2024699785 10.5813029276 7.75552579787 7.13941857732 6.73771309246 6.59124338701 6.52302737352 6.50379880459 </DataArray>
<DataArray Name="CFP coefficient of variation" format="ascii" type="Float32">0.516771310357 0.255980481538 0.112869262742 0.143892847372 0.185313220249 0.239473182075 0.306570384883 0.39130210999 0.494914415907 0.607969217518 0.392109886779 0.201188789882 0.305642389352 0.436764650785 0.580337819182 0.712873668903 0.827874854385 0.907975799273 0.954526476166 0.802638089339 0.30775902686 0.299587531695 0.393452517428 0.491767467705 0.600914846661 0.711823377672 0.821413366518 0.918424872665 0.919929036569 0.476506392515 0.340973513257 0.42504724964 0.524776949951 0.625460751499 0.726956624685 0.852405577752 0.951561396535 1.04367394685 0.722317937772 0.427594923352 0.450784963702 0.54628346427 0.642128451634 0.761564865355 0.882402190461 0.981222509096 1.05701982741 1.02016792052 0.549009314705 0.452752573416 0.547167717856 0.626887977402 0.737047526107 0.856028379371 0.955307292044 1.04012735209 1.0816972165 0.710137299833 0.492103587052 0.568885317767 0.646821047465 0.749442521676 0.831689727022 0.951818908034 1.06069119836 1.12815722329 0.995907686445 0.631752855373 0.556593928772 0.673242838831 0.759265200031 0.863230805038 0.967384426314 1.0744902926 1.16385449427 1.16441665232 0.752962318702 0.596602502743 0.67732159869 0.766127309104 0.873301771243 0.973804081491 1.07154795095 1.18052784102 1.22945851846 0.960472967939 0.670254384364 0.684976569484 0.775205820219 0.881701415561 0.989095028167 1.07966362657 1.16632097644 1.2760258586 1.70343889367 1.98426016922 2.17728869408 2.25089800045 2.28588264616 2.29582966101 </DataArray>
<DataArray Name="time" format="ascii" type="Float32">0.0 10.6476844288 21.2953688575 31.9430532863 42.590737715 53.2384221438 63.8861065726 74.5337910013 85.1814754301 95.8291598588 106.476844288 117.124528716 127.772213145 138.419897574 149.067582003 159.715266431 170.36295086 181.010635289 191.658319718 202.306004146 212.953688575 223.601373004 234.249057433 244.896741861 255.54442629 266.192110719 276.839795148 287.487479577 298.135164005 308.782848434 319.430532863 330.078217292 340.72590172 351.373586149 362.021270578 372.668955007 383.316639435 393.964323864 404.612008293 415.259692722 425.90737715 436.555061579 447.202746008 457.850430437 468.498114865 479.145799294 489.793483723 500.441168152 511.088852581 521.736537009 532.384221438 543.031905867 553.679590296 564.327274724 574.974959153 585.622643582 596.270328011 606.918012439 617.565696868 628.213381297 638.861065726 649.508750154 660.156434583 670.804119012 681.451803441 692.099487869 702.747172298 713.394856727 724.042541156 734.690225584 745.337910013 755.985594442 766.633278871 777.2809633 787.928647728 798.576332157 809.224016586 819.871701015 830.519385443 841.167069872 851.814754301 862.46243873 873.110123158 883.757807587 894.405492016 905.053176445 915.700860873 926.348545302 936.996229731 947.64391416 958.291598588 968.939283017 979.586967446 990.234651875 1000.8823363 1011.53002073 1022.17770516 1032.82538959 1043.47307402 1054.12075845 </DataArray>
<DataArray Name="CFP variance" format="ascii" type="Float32">248.428775707 689.765884468 203.399737937 241.715544342 284.897498557 323.743373896 342.466928429 336.778111205 299.264875705 237.688939196 800.591782289 555.001741652 692.183127726 651.459695189 512.775637398 354.856108099 228.840267742 141.619951593 83.3606871387 571.392320836 983.859205688 866.792156543 811.428661614 671.416787131 509.958646289 353.896413298 225.286357562 131.959882732 146.906744705 1196.29501105 1259.32825967 1078.13066029 875.594491151 657.800135564 459.826495374 304.310341647 189.108665895 109.638271772 905.485409335 1753.43441202 1394.29152182 1065.21090695 761.846117704 527.304324973 342.176405699 207.676058124 120.370991974 355.685804182 1893.77208585 1754.12402245 1343.33892365 939.063992049 651.840984769 425.22775771 259.653283069 151.054776921 91.754998836 1302.0930782 2143.46572975 1653.78236785 1129.41092954 762.835740946 491.10839097 305.514952413 179.195130154 102.059460509 673.397985501 2499.17647417 1963.41667164 1418.62895081 938.220408372 604.101330723 372.751680162 219.975960838 125.45947683 171.844494415 1916.01273641 2569.77467187 1749.88684017 1153.42911643 745.351045659 461.737140628 273.194135438 151.751186137 84.1190353282 1060.89915992 2877.11588076 2169.91287138 1438.00696003 928.794615054 581.034647166 349.440991886 201.710153491 111.963971646 60.1481804014 50.9712976222 45.3967777163 43.4444893868 42.5498861157 42.2993988906 </DataArray>
<DataArray Name="CFP median" format="ascii" type="Float32">27.0 103.0 126.0 108.0 92.0 75.0 60.0 46.0 33.0 23.0 72.0 116.0 85.0 57.0 36.0 23.0 14.0 10.0 7.0 25.0 106.0 102.0 75.0 53.0 36.0 23.0 15.0 9.0 9.0 75.0 111.0 82.0 58.0 40.0 27.0 17.0 11.0 7.0 41.0 109.0 91.0 64.0 43.0 27.0 17.0 11.0 7.0 11.0 88.0 104.0 74.0 52.0 34.0 21.0 13.0 9.0 6.0 52.0 110.0 82.0 57.0 38.0 24.0 15.0 9.0 6.0 17.0 96.0 93.0 63.0 42.0 26.0 16.0 10.0 6.0 7.0 64.0 104.0 73.0 48.0 30.0 18.0 11.0 7.0 5.0 27.0 103.0 83.0 55.0 34.0 20.0 13.0 8.0 5.0 0.0 0.0 0.0 0.0 0.0 0.0 </DataArray>
<DataArray Name="CFP +1 stddev" format="ascii" type="Float32">46.2618142053 128.86260126 140.618886201 123.594295945 107.962030338 93.1280895242 78.8700162524 65.2501001348 52.2533452866 40.7756249405 100.454937769 140.65483482 112.388314975 83.9618363173 61.6641503029 45.2625379669 33.4001171697 25.0069548168 18.6953767535 53.6853733451 133.285652731 127.714229499 100.884632915 78.6026946104 60.1620710015 45.2402281716 33.28236663 23.9950754702 25.2959921253 107.17308845 139.562593051 110.084900035 85.9771564243 66.6535683179 50.9412886531 37.9095084266 28.2033774204 20.5034931146 71.7506191388 139.803233821 120.173972546 92.3823188544 70.5860439098 53.115638519 39.4612530822 29.0977204455 21.3509038017 37.346428314 122.78298059 134.388118618 103.63578177 79.5271287336 60.1709737721 44.7102659121 32.9813809767 24.1067127694 18.434302778 86.8979778032 140.378538261 112.151646041 85.563444337 64.472849371 48.806678128 35.8427586657 26.006808068 19.0572712368 52.0064575811 129.123601202 123.920485022 93.6098698972 70.9725247307 53.0511279307 39.2644883467 28.6349561471 20.8248126003 24.3668993994 101.905713398 135.662325371 103.592042766 78.2918432215 58.5630700013 43.554181522 31.9535464505 22.753669707 16.6315473915 66.483330098 133.666209954 114.588041846 86.8384738726 65.0412707846 48.4750792909 36.0073823497 26.379623837 18.8736920327 12.3083899051 10.7374440218 9.83225591114 9.51951618555 9.37664165878 9.33667395863 </DataArray>
<DataArray Name="CFP mean" format="ascii" type="Float32">30.5001906941 102.599206878 126.3570582 108.047092199 91.0831234257 75.1352194392 60.3641542507 46.8985849057 34.9540714375 25.3584611548 72.1602071238 117.096359877 86.0789415933 58.4381278252 39.0196004641 26.424913167 18.2726498423 13.10653669 9.56516935509 29.7815594059 101.919122708 98.2728953492 72.3990460051 52.690983221 37.5798070253 26.4280934363 18.2728244131 12.5076961898 13.175482866 72.5855905488 104.075577684 77.25 56.3867104806 41.0059537005 29.4977232925 20.4650152655 14.4516987631 10.03266355 41.6593345313 97.9292035398 82.8337593456 59.7447499045 42.9844838505 30.1525306071 20.9632422243 14.6867503836 10.3795323298 18.4867940604 79.2654888674 92.5058548009 66.984193487 48.8829777085 34.6397970509 24.089214588 16.8676203024 11.8162784028 8.85541981411 50.8134509502 94.0809602488 71.4849229395 51.9567347458 36.8533681857 26.6457126488 18.3637726421 12.6204295377 8.95482299345 26.0565445658 79.1318371388 79.6100272082 55.9451788615 40.3421409856 28.472655018 19.9577102581 13.803369555 9.62394313271 11.2579522863 58.1334306569 84.9693803798 61.7603939798 44.3296713764 31.2619519718 22.0661117942 15.4249610471 10.4349365685 7.45990439105 33.9118830942 80.0274564196 68.0057182521 48.9174116508 34.5651388933 24.3704190119 17.3140415063 12.1771538585 8.29238910506 4.55286410725 3.59802544448 3.09454281868 2.92827279854 2.85361428526 2.83287515404 </DataArray>
</PointData>
<CellData/>
<Cells>
<DataArray Name="connectivity" format="ascii" type="Int32">0</DataArray>
<DataArray Name="offsets" format="ascii" type="Int32">0</DataArray>
<DataArray Name="types" format="ascii" type="UInt8">11</DataArray>
</Cells>
</Piece>
</UnstructuredGrid>
</VTKFile>
