<?xml version="1.0" ?>
<VTKFile byte_order="LittleEndian" type="UnstructuredGrid" version="0.1">
<UnstructuredGrid>
<Piece NumberOfCells="0" NumberOfPoints="100">
<Points>
<DataArray NumberOfComponents="3" format="ascii" type="Float32">7.55116271891 7.55116271891 7.55116271891 5.91545267864 5.91545267864 5.91545267864 5.06218519603 5.06218519603 5.06218519603 4.4172502569 4.4172502569 4.4172502569 3.82881522338 3.82881522338 3.82881522338 3.28116185964 3.28116185964 3.28116185964 2.68361404591 2.68361404591 2.68361404591 2.12170353467 2.12170353467 2.12170353467 1.66225519974 1.66225519974 1.66225519974 1.2363779448 1.2363779448 1.2363779448 0.907071216881 0.907071216881 0.907071216881 0.640481079687 0.640481079687 0.640481079687 0.54600061626 0.54600061626 0.54600061626 0.517261820659 0.517261820659 0.517261820659 0.494935084786 0.494935084786 0.494935084786 0.531045552756 0.531045552756 0.531045552756 0.526318457651 0.526318457651 0.526318457651 0.597130739992 0.597130739992 0.597130739992 0.681448949854 0.681448949854 0.681448949854 0.611193156788 0.611193156788 0.611193156788 0.513955165553 0.513955165553 0.513955165553 0.467487977567 0.467487977567 0.467487977567 0.350013880866 0.350013880866 0.350013880866 0.280498500899 0.280498500899 0.280498500899 0.236725277281 0.236725277281 0.236725277281 0.328237948092 0.328237948092 0.328237948092 0.334921606414 0.334921606414 0.334921606414 0.2379422493 0.2379422493 0.2379422493 0.255297210251 0.255297210251 0.255297210251 0.279395639715 0.279395639715 0.279395639715 0.269679482726 0.269679482726 0.269679482726 0.318741907097 0.318741907097 0.318741907097 0.277824553664 0.277824553664 0.277824553664 0.199778244832 0.199778244832 0.199778244832 0.111171382628 0.111171382628 0.111171382628 0.130202289782 0.130202289782 0.130202289782 0.211926359003 0.211926359003 0.211926359003 0.114598123517 0.114598123517 0.114598123517 0.139800100665 0.139800100665 0.139800100665 0.041516714118 0.041516714118 0.041516714118 0.0388560946859 0.0388560946859 0.0388560946859 0.0402111201473 0.0402111201473 0.0402111201473 0.00383555486647 0.00383555486647 0.00383555486647 0.0176657195897 0.0176657195897 0.0176657195897 0.0388412495274 0.0388412495274 0.0388412495274 -0.0199174512215 -0.0199174512215 -0.0199174512215 0.0352973229275 0.0352973229275 0.0352973229275 -0.00709066726994 -0.00709066726994 -0.00709066726994 -0.0840763867117 -0.0840763867117 -0.0840763867117 -0.0371072261542 -0.0371072261542 -0.0371072261542 -0.00660351883871 -0.00660351883871 -0.00660351883871 -0.0971062185986 -0.0971062185986 -0.0971062185986 -0.0649735098733 -0.0649735098733 -0.0649735098733 -0.131674238014 -0.131674238014 -0.131674238014 -0.171576323543 -0.171576323543 -0.171576323543 -0.154988023947 -0.154988023947 -0.154988023947 -0.165410770146 -0.165410770146 -0.165410770146 -0.18941742652 -0.18941742652 -0.18941742652 -0.162041357038 -0.162041357038 -0.162041357038 -0.219485265668 -0.219485265668 -0.219485265668 -0.204097298697 -0.204097298697 -0.204097298697 -0.216847810527 -0.216847810527 -0.216847810527 -0.17819169134 -0.17819169134 -0.17819169134 -0.198978832893 -0.198978832893 -0.198978832893 -0.307962376576 -0.307962376576 -0.307962376576 -0.343603009244 -0.343603009244 -0.343603009244 -0.38647026733 -0.38647026733 -0.38647026733 -0.354541292406 -0.354541292406 -0.354541292406 -0.34243985691 -0.34243985691 -0.34243985691 -0.364922798688 -0.364922798688 -0.364922798688 -0.376345569716 -0.376345569716 -0.376345569716 -0.360140108162 -0.360140108162 -0.360140108162 -0.404090012141 -0.404090012141 -0.404090012141 -0.304286643861 -0.304286643861 -0.304286643861 -0.401311451054 -0.401311451054 -0.401311451054 -0.372642351711 -0.372642351711 -0.372642351711 -0.459362242651 -0.459362242651 -0.459362242651 -0.434306581212 -0.434306581212 -0.434306581212 -0.451120506177 -0.451120506177 -0.451120506177 -0.399773532989 -0.399773532989 -0.399773532989 -0.423313662785 -0.423313662785 -0.423313662785 -0.442362381305 -0.442362381305 -0.442362381305 -0.414541154052 -0.414541154052 -0.414541154052 -0.506475902523 -0.506475902523 -0.506475902523 -0.421705131259 -0.421705131259 -0.421705131259 -0.475612935363 -0.475612935363 -0.475612935363 -0.482535851619 -0.482535851619 -0.482535851619 -0.576269461305 -0.576269461305 -0.576269461305 -0.513276597495 -0.513276597495 -0.513276597495 -0.545880508413 -0.545880508413 -0.545880508413 -0.606831978343 -0.606831978343 -0.606831978343 -0.560932072152 -0.560932072152 -0.560932072152 -0.517064259455 -0.517064259455 -0.517064259455 -0.602027869998 -0.602027869998 -0.602027869998 -0.574220074046 -0.574220074046 -0.574220074046 -0.679894921555 -0.679894921555 -0.679894921555 -0.764572828895 -0.764572828895 -0.764572828895 -0.783177023671 -0.783177023671 -0.783177023671 -0.789907433694 -0.789907433694 -0.789907433694 -0.790645023575 -0.790645023575 -0.790645023575 </DataArray>
</Points>
<PointData>
<DataArray Name="Points" format="ascii" type="Float32">7.55116271891 7.55116271891 7.55116271891 5.91545267864 5.91545267864 5.91545267864 5.06218519603 5.06218519603 5.06218519603 4.4172502569 4.4172502569 4.4172502569 3.82881522338 3.82881522338 3.82881522338 3.28116185964 3.28116185964 3.28116185964 2.68361404591 2.68361404591 2.68361404591 2.12170353467 2.12170353467 2.12170353467 1.66225519974 1.66225519974 1.66225519974 1.2363779448 1.2363779448 1.2363779448 0.907071216881 0.907071216881 0.907071216881 0.640481079687 0.640481079687 0.640481079687 0.54600061626 0.54600061626 0.54600061626 0.517261820659 0.517261820659 0.517261820659 0.494935084786 0.494935084786 0.494935084786 0.531045552756 0.531045552756 0.531045552756 0.526318457651 0.526318457651 0.526318457651 0.597130739992 0.597130739992 0.597130739992 0.681448949854 0.681448949854 0.681448949854 0.611193156788 0.611193156788 0.611193156788 0.513955165553 0.513955165553 0.513955165553 0.467487977567 0.467487977567 0.467487977567 0.350013880866 0.350013880866 0.350013880866 0.280498500899 0.280498500899 0.280498500899 0.236725277281 0.236725277281 0.236725277281 0.328237948092 0.328237948092 0.328237948092 0.334921606414 0.334921606414 0.334921606414 0.2379422493 0.2379422493 0.2379422493 0.255297210251 0.255297210251 0.255297210251 0.279395639715 0.279395639715 0.279395639715 0.269679482726 0.269679482726 0.269679482726 0.318741907097 0.318741907097 0.318741907097 0.277824553664 0.277824553664 0.277824553664 0.199778244832 0.199778244832 0.199778244832 0.111171382628 0.111171382628 0.111171382628 0.130202289782 0.130202289782 0.130202289782 0.211926359003 0.211926359003 0.211926359003 0.114598123517 0.114598123517 0.114598123517 0.139800100665 0.139800100665 0.139800100665 0.041516714118 0.041516714118 0.041516714118 0.0388560946859 0.0388560946859 0.0388560946859 0.0402111201473 0.0402111201473 0.0402111201473 0.00383555486647 0.00383555486647 0.00383555486647 0.0176657195897 0.0176657195897 0.0176657195897 0.0388412495274 0.0388412495274 0.0388412495274 -0.0199174512215 -0.0199174512215 -0.0199174512215 0.0352973229275 0.0352973229275 0.0352973229275 -0.00709066726994 -0.00709066726994 -0.00709066726994 -0.0840763867117 -0.0840763867117 -0.0840763867117 -0.0371072261542 -0.0371072261542 -0.0371072261542 -0.00660351883871 -0.00660351883871 -0.00660351883871 -0.0971062185986 -0.0971062185986 -0.0971062185986 -0.0649735098733 -0.0649735098733 -0.0649735098733 -0.131674238014 -0.131674238014 -0.131674238014 -0.171576323543 -0.171576323543 -0.171576323543 -0.154988023947 -0.154988023947 -0.154988023947 -0.165410770146 -0.165410770146 -0.165410770146 -0.18941742652 -0.18941742652 -0.18941742652 -0.162041357038 -0.162041357038 -0.162041357038 -0.219485265668 -0.219485265668 -0.219485265668 -0.204097298697 -0.204097298697 -0.204097298697 -0.216847810527 -0.216847810527 -0.216847810527 -0.17819169134 -0.17819169134 -0.17819169134 -0.198978832893 -0.198978832893 -0.198978832893 -0.307962376576 -0.307962376576 -0.307962376576 -0.343603009244 -0.343603009244 -0.343603009244 -0.38647026733 -0.38647026733 -0.38647026733 -0.354541292406 -0.354541292406 -0.354541292406 -0.34243985691 -0.34243985691 -0.34243985691 -0.364922798688 -0.364922798688 -0.364922798688 -0.376345569716 -0.376345569716 -0.376345569716 -0.360140108162 -0.360140108162 -0.360140108162 -0.404090012141 -0.404090012141 -0.404090012141 -0.304286643861 -0.304286643861 -0.304286643861 -0.401311451054 -0.401311451054 -0.401311451054 -0.372642351711 -0.372642351711 -0.372642351711 -0.459362242651 -0.459362242651 -0.459362242651 -0.434306581212 -0.434306581212 -0.434306581212 -0.451120506177 -0.451120506177 -0.451120506177 -0.399773532989 -0.399773532989 -0.399773532989 -0.423313662785 -0.423313662785 -0.423313662785 -0.442362381305 -0.442362381305 -0.442362381305 -0.414541154052 -0.414541154052 -0.414541154052 -0.506475902523 -0.506475902523 -0.506475902523 -0.421705131259 -0.421705131259 -0.421705131259 -0.475612935363 -0.475612935363 -0.475612935363 -0.482535851619 -0.482535851619 -0.482535851619 -0.576269461305 -0.576269461305 -0.576269461305 -0.513276597495 -0.513276597495 -0.513276597495 -0.545880508413 -0.545880508413 -0.545880508413 -0.606831978343 -0.606831978343 -0.606831978343 -0.560932072152 -0.560932072152 -0.560932072152 -0.517064259455 -0.517064259455 -0.517064259455 -0.602027869998 -0.602027869998 -0.602027869998 -0.574220074046 -0.574220074046 -0.574220074046 -0.679894921555 -0.679894921555 -0.679894921555 -0.764572828895 -0.764572828895 -0.764572828895 -0.783177023671 -0.783177023671 -0.783177023671 -0.789907433694 -0.789907433694 -0.789907433694 -0.790645023575 -0.790645023575 -0.790645023575 </DataArray>
<DataArray Name="CFP -1 stddev" format="ascii" type="Float32">7.55116271891 5.91545267864 5.06218519603 4.4172502569 3.82881522338 3.28116185964 2.68361404591 2.12170353467 1.66225519974 1.2363779448 0.907071216881 0.640481079687 0.54600061626 0.517261820659 0.494935084786 0.531045552756 0.526318457651 0.597130739992 0.681448949854 0.611193156788 0.513955165553 0.467487977567 0.350013880866 0.280498500899 0.236725277281 0.328237948092 0.334921606414 0.2379422493 0.255297210251 0.279395639715 0.269679482726 0.318741907097 0.277824553664 0.199778244832 0.111171382628 0.130202289782 0.211926359003 0.114598123517 0.139800100665 0.041516714118 0.0388560946859 0.0402111201473 0.00383555486647 0.0176657195897 0.0388412495274 -0.0199174512215 0.0352973229275 -0.00709066726994 -0.0840763867117 -0.0371072261542 -0.00660351883871 -0.0971062185986 -0.0649735098733 -0.131674238014 -0.171576323543 -0.154988023947 -0.165410770146 -0.18941742652 -0.162041357038 -0.219485265668 -0.204097298697 -0.216847810527 -0.17819169134 -0.198978832893 -0.307962376576 -0.343603009244 -0.38647026733 -0.354541292406 -0.34243985691 -0.364922798688 -0.376345569716 -0.360140108162 -0.404090012141 -0.304286643861 -0.401311451054 -0.372642351711 -0.459362242651 -0.434306581212 -0.451120506177 -0.399773532989 -0.423313662785 -0.442362381305 -0.414541154052 -0.506475902523 -0.421705131259 -0.475612935363 -0.482535851619 -0.576269461305 -0.513276597495 -0.545880508413 -0.606831978343 -0.560932072152 -0.517064259455 -0.602027869998 -0.574220074046 -0.679894921555 -0.764572828895 -0.783177023671 -0.789907433694 -0.790645023575 </DataArray>
<DataArray Name="1 stddev of CFP" format="ascii" type="Float32">1.3866140547 1.83753320627 2.21519103224 2.46837250549 2.60193511898 2.66665829744 2.73833504466 2.68580842367 2.54766882461 2.34194924893 2.12994043494 1.92767767819 1.82715396989 1.78148204823 1.80894739658 1.82094154769 1.91358998325 1.90450844961 1.90827421767 1.91171371057 1.89894866308 1.92950006037 1.98817451458 1.98747089286 1.97328223305 1.9125098672 1.91576427282 1.9488494478 1.90609013818 1.90325800761 1.88968823534 1.86582266036 1.85471870303 1.92389934898 1.97394197694 1.93811702206 1.9446268633 1.91923046904 1.9584247229 1.95883626859 1.93078409411 1.91668707205 1.96068164247 1.92932450305 1.90587590245 1.92359476089 1.94403040409 1.93863066158 1.93265157911 1.93040326211 1.92931304923 1.93384234597 1.94954427553 1.96180868621 1.98644563894 1.9956596476 1.90289704768 1.93105555571 1.88982031459 1.93718872576 1.95041568023 1.95333765278 1.90437137548 1.89508216878 1.92899069739 2.02400289526 1.98074702154 1.98761543388 1.97751197229 1.95565124455 1.98825123367 1.99049811494 1.92462729962 1.91275329899 1.84828114802 1.85359814621 1.84952234549 1.87301279121 1.88338733814 1.84385232232 1.80899800223 1.81595926352 1.84775336335 1.81123612274 1.86471292359 1.90168283465 1.93331700845 1.98571974069 2.00980793757 1.97098753198 1.93079510154 1.94257079257 1.97200717299 1.9404588262 1.84286801108 1.76047960234 1.64079779694 1.59798450125 1.57902035099 1.57678253639 </DataArray>
<DataArray Name="CFP coefficient of variation" format="ascii" type="Float32">0.155140824148 0.237009744832 0.304394188614 0.358482099683 0.404608324139 0.448342119804 0.505046247931 0.558669109291 0.605157910184 0.65448158375 0.701327712609 0.750606897754 0.769926232599 0.774980663283 0.785173467489 0.774214087886 0.784287619638 0.761304211065 0.736864172047 0.757742481621 0.786997243962 0.804968581333 0.850305526472 0.876321743287 0.892884853932 0.853514105491 0.851191314833 0.891191168498 0.88188271277 0.871992681909 0.875111829972 0.854093620374 0.86972149203 0.905928166585 0.946683290806 0.937049231694 0.901729131091 0.943653991326 0.933372201541 0.979245305965 0.980272490932 0.979451603406 0.99804758397 0.99092665213 0.980027301406 1.01046261944 0.982167014363 1.00367099169 1.04548172401 1.01959927315 1.00343448593 1.05286889998 1.03447655618 1.07194784959 1.09453921673 1.08420188694 1.09520119513 1.10875819916 1.09378593039 1.12777832191 1.11687290293 1.12487709703 1.10322893554 1.11731527713 1.18997963985 1.20447692963 1.24241102827 1.21710054884 1.20943409999 1.22940609357 1.23347865705 1.22089633483 1.26575475358 1.1891780864 1.27734613371 1.25162287294 1.33043837304 1.30187301493 1.31496959652 1.27683637205 1.30549068842 1.32204672785 1.28923920084 1.38817546295 1.29224037008 1.33351305963 1.33260416249 1.40886114944 1.34297751323 1.38304527266 1.45834507601 1.40599041114 1.35538456846 1.44980121478 1.45262366121 1.62919170856 1.87257594428 1.96118045701 2.00100684754 2.00573374338 </DataArray>
<DataArray Name="time" format="ascii" type="Float32">0.0 10.6077491068 21.2154982136 31.8232473204 42.4309964273 53.0387455341 63.6464946409 74.2542437477 84.8619928545 95.4697419613 106.077491068 116.685240175 127.292989282 137.900738389 148.508487495 159.116236602 169.723985709 180.331734816 190.939483923 201.547233029 212.154982136 222.762731243 233.37048035 243.978229457 254.585978564 265.19372767 275.801476777 286.409225884 297.016974991 307.624724098 318.232473204 328.840222311 339.447971418 350.055720525 360.663469632 371.271218738 381.878967845 392.486716952 403.094466059 413.702215166 424.309964273 434.917713379 445.525462486 456.133211593 466.7409607 477.348709807 487.956458913 498.56420802 509.171957127 519.779706234 530.387455341 540.995204447 551.602953554 562.210702661 572.818451768 583.426200875 594.033949982 604.641699088 615.249448195 625.857197302 636.464946409 647.072695516 657.680444622 668.288193729 678.895942836 689.503691943 700.11144105 710.719190156 721.326939263 731.93468837 742.542437477 753.150186584 763.757935691 774.365684797 784.973433904 795.581183011 806.188932118 816.796681225 827.404430331 838.012179438 848.619928545 859.227677652 869.835426759 880.443175865 891.050924972 901.658674079 912.266423186 922.874172293 933.4819214 944.089670506 954.697419613 965.30516872 975.912917827 986.520666934 997.12841604 1007.73616515 1018.34391425 1028.95166336 1039.55941247 1050.16716157 </DataArray>
<DataArray Name="CFP variance" format="ascii" type="Float32">1.9226985367 3.37652828413 4.90707130932 6.09286282585 6.77006636337 7.1110664753 7.49847881682 7.21356688866 6.49061643989 5.48472628456 4.53664625637 3.71594123098 3.33849162969 3.17367828815 3.27229068361 3.3158281201 3.66182662399 3.62715243464 3.64151048982 3.65464931118 3.60600602502 3.72297048296 3.95283790044 3.95004054997 3.89384277125 3.65769399213 3.67015274903 3.79801417019 3.63317961488 3.62239104355 3.57092162679 3.48129419993 3.43998146738 3.70138870501 3.89644692831 3.75629759121 3.78157363747 3.68344559328 3.83542739527 3.83703952713 3.72792721808 3.67368933217 3.8442725031 3.72229303807 3.63236295555 3.70021680414 3.77925421203 3.75828884201 3.73514212625 3.72645675438 3.72224884192 3.73974621906 3.80072288227 3.84869332128 3.94596627645 3.98265742908 3.62101717406 3.72897555925 3.57142082144 3.75270015923 3.8041213257 3.81552798577 3.62663033577 3.59133642644 3.72100511061 4.09658772003 3.92335876336 3.95061511301 3.91055360057 3.82457179029 3.95314296818 3.96208274556 3.70419024243 3.65862518279 3.41614320214 3.43582608765 3.42073290647 3.50817691603 3.54714786548 3.39979138654 3.27247377209 3.29770804678 3.41419249179 3.2805762923 3.47715428742 3.61639760361 3.73771465515 3.94308288855 4.03932794592 3.88479185123 3.72796972415 3.77358128415 3.88881229032 3.76538045617 3.39616250626 3.09928843027 2.69221741044 2.55355446623 2.49330526883 2.48624316706 </DataArray>
<DataArray Name="CFP median" format="ascii" type="Float32">9.0 8.0 7.0 7.0 6.0 6.0 5.0 4.0 4.0 3.0 3.0 2.0 2.0 2.0 2.0 2.0 2.0 2.0 2.0 2.0 2.0 2.0 2.0 2.0 2.0 2.0 2.0 2.0 2.0 2.0 2.0 2.0 2.0 2.0 2.0 2.0 2.0 2.0 2.0 2.0 2.0 2.0 2.0 2.0 2.0 2.0 2.0 2.0 1.0 2.0 2.0 1.0 1.0 1.0 1.0 1.0 1.0 1.0 1.0 1.0 1.0 1.0 1.0 1.0 1.0 1.0 1.0 1.0 1.0 1.0 1.0 1.0 1.0 1.0 1.0 1.0 0.0 1.0 1.0 1.0 1.0 0.0 1.0 0.0 1.0 0.0 0.0 0.0 0.0 0.0 0.0 0.0 0.0 0.0 0.0 0.0 0.0 0.0 0.0 0.0 </DataArray>
<DataArray Name="CFP +1 stddev" format="ascii" type="Float32">10.3243908283 9.59051909117 9.49256726051 9.35399526788 9.03268546133 8.61447845452 8.16028413523 7.49332038201 6.75759284896 5.92027644266 5.16695208675 4.49583643606 4.20030855604 4.08022591711 4.11282987796 4.17292864814 4.35349842415 4.40614763921 4.49799738519 4.43462057792 4.31185249172 4.3264880983 4.32636291003 4.25544028662 4.18328974337 4.15325768249 4.16645015206 4.1356411449 4.06747748662 4.08591165494 4.04905595341 4.05038722782 3.98726195973 4.0475769428 4.0590553365 4.00643633391 4.1011800856 3.95305906159 4.05664954647 3.95918925129 3.90042428291 3.87358526425 3.9251988398 3.87631472569 3.85059305443 3.82727207057 3.92335813111 3.87017065588 3.78122677151 3.82369929807 3.85202257962 3.77057847334 3.8341150412 3.7919431344 3.80131495433 3.83633127126 3.64038332521 3.67269368491 3.61759927214 3.65489218586 3.69673406177 3.68982749503 3.63055105963 3.59118550467 3.5500190182 3.70440278128 3.57502377576 3.62068957536 3.61258408768 3.5463796904 3.60015689762 3.62085612171 3.44516458709 3.52121995412 3.29525084499 3.33455394072 3.23968244833 3.31171900121 3.31565417011 3.28793111166 3.19468234168 3.18955614574 3.28096557266 3.11599634295 3.30772071593 3.32775273394 3.38409816527 3.39517002007 3.50633927765 3.39609455555 3.25475822475 3.32420951299 3.42695008652 3.2788897824 3.11151594811 2.84106428313 2.51702276498 2.41279197883 2.36813326828 2.3629200492 </DataArray>
<DataArray Name="CFP mean" format="ascii" type="Float32">8.93777677361 7.75298588491 7.27737622827 6.88562276239 6.43075034235 5.94782015708 5.42194909057 4.80751195834 4.20992402435 3.57832719373 3.03701165182 2.56815875788 2.37315458615 2.29874386888 2.30388248137 2.35198710045 2.4399084409 2.5016391896 2.58972316752 2.52290686736 2.41290382863 2.39698803794 2.33818839545 2.26796939376 2.21000751033 2.24074781529 2.25068587924 2.1867916971 2.16138734844 2.18265364733 2.15936771807 2.18456456746 2.1325432567 2.12367759381 2.08511335957 2.06831931184 2.1565532223 2.03382859255 2.09822482357 2.0003529827 1.9696401888 1.9568981922 1.96451719733 1.94699022264 1.94471715198 1.90367730967 1.97932772702 1.93153999431 1.8485751924 1.89329603596 1.92270953039 1.83673612737 1.88457076566 1.83013444819 1.81486931539 1.84067162366 1.73748627753 1.74163812919 1.72777895755 1.7177034601 1.74631838154 1.73648984225 1.72617968415 1.69610333589 1.62102832081 1.68039988602 1.59427675421 1.63307414148 1.63507211538 1.59072844586 1.61190566395 1.63035800677 1.52053728748 1.60846665513 1.44696969697 1.4809557945 1.39016010284 1.43870621 1.43226683197 1.44407878933 1.38568433945 1.37359688222 1.4332122093 1.30476022021 1.44300779234 1.42606989929 1.45078115683 1.40945027938 1.49653134008 1.42510702357 1.3239631232 1.38163872042 1.45494291353 1.3384309562 1.26864793703 1.08058468079 0.876224968044 0.814807477578 0.789112917292 0.786137512815 </DataArray>
</PointData>
<CellData/>
<Cells>
<DataArray Name="connectivity" format="ascii" type="Int32">0</DataArray>
<DataArray Name="offsets" format="ascii" type="Int32">0</DataArray>
<DataArray Name="types" format="ascii" type="UInt8">11</DataArray>
</Cells>
</Piece>
</UnstructuredGrid>
</VTKFile>
