<?xml version="1.0" ?>
<VTKFile byte_order="LittleEndian" type="UnstructuredGrid" version="0.1">
<UnstructuredGrid>
<Piece NumberOfCells="0" NumberOfPoints="100">
<Points>
<DataArray NumberOfComponents="3" format="ascii" type="Float32">0.0 0.0 0.0 10.5877379222 10.5877379222 10.5877379222 21.1754758444 21.1754758444 21.1754758444 31.7632137666 31.7632137666 31.7632137666 42.3509516887 42.3509516887 42.3509516887 52.9386896109 52.9386896109 52.9386896109 63.5264275331 63.5264275331 63.5264275331 74.1141654553 74.1141654553 74.1141654553 84.7019033775 84.7019033775 84.7019033775 95.2896412997 95.2896412997 95.2896412997 105.877379222 105.877379222 105.877379222 116.465117144 116.465117144 116.465117144 127.052855066 127.052855066 127.052855066 137.640592988 137.640592988 137.640592988 148.228330911 148.228330911 148.228330911 158.816068833 158.816068833 158.816068833 169.403806755 169.403806755 169.403806755 179.991544677 179.991544677 179.991544677 190.579282599 190.579282599 190.579282599 201.167020522 201.167020522 201.167020522 211.754758444 211.754758444 211.754758444 222.342496366 222.342496366 222.342496366 232.930234288 232.930234288 232.930234288 243.51797221 243.51797221 243.51797221 254.105710132 254.105710132 254.105710132 264.693448055 264.693448055 264.693448055 275.281185977 275.281185977 275.281185977 285.868923899 285.868923899 285.868923899 296.456661821 296.456661821 296.456661821 307.044399743 307.044399743 307.044399743 317.632137666 317.632137666 317.632137666 328.219875588 328.219875588 328.219875588 338.80761351 338.80761351 338.80761351 349.395351432 349.395351432 349.395351432 359.983089354 359.983089354 359.983089354 370.570827277 370.570827277 370.570827277 381.158565199 381.158565199 381.158565199 391.746303121 391.746303121 391.746303121 402.334041043 402.334041043 402.334041043 412.921778965 412.921778965 412.921778965 423.509516887 423.509516887 423.509516887 434.09725481 434.09725481 434.09725481 444.684992732 444.684992732 444.684992732 455.272730654 455.272730654 455.272730654 465.860468576 465.860468576 465.860468576 476.448206498 476.448206498 476.448206498 487.035944421 487.035944421 487.035944421 497.623682343 497.623682343 497.623682343 508.211420265 508.211420265 508.211420265 518.799158187 518.799158187 518.799158187 529.386896109 529.386896109 529.386896109 539.974634032 539.974634032 539.974634032 550.562371954 550.562371954 550.562371954 561.150109876 561.150109876 561.150109876 571.737847798 571.737847798 571.737847798 582.32558572 582.32558572 582.32558572 592.913323642 592.913323642 592.913323642 603.501061565 603.501061565 603.501061565 614.088799487 614.088799487 614.088799487 624.676537409 624.676537409 624.676537409 635.264275331 635.264275331 635.264275331 645.852013253 645.852013253 645.852013253 656.439751176 656.439751176 656.439751176 667.027489098 667.027489098 667.027489098 677.61522702 677.61522702 677.61522702 688.202964942 688.202964942 688.202964942 698.790702864 698.790702864 698.790702864 709.378440787 709.378440787 709.378440787 719.966178709 719.966178709 719.966178709 730.553916631 730.553916631 730.553916631 741.141654553 741.141654553 741.141654553 751.729392475 751.729392475 751.729392475 762.317130397 762.317130397 762.317130397 772.90486832 772.90486832 772.90486832 783.492606242 783.492606242 783.492606242 794.080344164 794.080344164 794.080344164 804.668082086 804.668082086 804.668082086 815.255820008 815.255820008 815.255820008 825.843557931 825.843557931 825.843557931 836.431295853 836.431295853 836.431295853 847.019033775 847.019033775 847.019033775 857.606771697 857.606771697 857.606771697 868.194509619 868.194509619 868.194509619 878.782247542 878.782247542 878.782247542 889.369985464 889.369985464 889.369985464 899.957723386 899.957723386 899.957723386 910.545461308 910.545461308 910.545461308 921.13319923 921.13319923 921.13319923 931.720937152 931.720937152 931.720937152 942.308675075 942.308675075 942.308675075 952.896412997 952.896412997 952.896412997 963.484150919 963.484150919 963.484150919 974.071888841 974.071888841 974.071888841 984.659626763 984.659626763 984.659626763 995.247364686 995.247364686 995.247364686 1005.83510261 1005.83510261 1005.83510261 1016.42284053 1016.42284053 1016.42284053 1027.01057845 1027.01057845 1027.01057845 1037.59831637 1037.59831637 1037.59831637 1048.1860543 1048.1860543 1048.1860543 </DataArray>
</Points>
<PointData>
<DataArray Name="Points" format="ascii" type="Float32">0.0 0.0 0.0 10.5877379222 10.5877379222 10.5877379222 21.1754758444 21.1754758444 21.1754758444 31.7632137666 31.7632137666 31.7632137666 42.3509516887 42.3509516887 42.3509516887 52.9386896109 52.9386896109 52.9386896109 63.5264275331 63.5264275331 63.5264275331 74.1141654553 74.1141654553 74.1141654553 84.7019033775 84.7019033775 84.7019033775 95.2896412997 95.2896412997 95.2896412997 105.877379222 105.877379222 105.877379222 116.465117144 116.465117144 116.465117144 127.052855066 127.052855066 127.052855066 137.640592988 137.640592988 137.640592988 148.228330911 148.228330911 148.228330911 158.816068833 158.816068833 158.816068833 169.403806755 169.403806755 169.403806755 179.991544677 179.991544677 179.991544677 190.579282599 190.579282599 190.579282599 201.167020522 201.167020522 201.167020522 211.754758444 211.754758444 211.754758444 222.342496366 222.342496366 222.342496366 232.930234288 232.930234288 232.930234288 243.51797221 243.51797221 243.51797221 254.105710132 254.105710132 254.105710132 264.693448055 264.693448055 264.693448055 275.281185977 275.281185977 275.281185977 285.868923899 285.868923899 285.868923899 296.456661821 296.456661821 296.456661821 307.044399743 307.044399743 307.044399743 317.632137666 317.632137666 317.632137666 328.219875588 328.219875588 328.219875588 338.80761351 338.80761351 338.80761351 349.395351432 349.395351432 349.395351432 359.983089354 359.983089354 359.983089354 370.570827277 370.570827277 370.570827277 381.158565199 381.158565199 381.158565199 391.746303121 391.746303121 391.746303121 402.334041043 402.334041043 402.334041043 412.921778965 412.921778965 412.921778965 423.509516887 423.509516887 423.509516887 434.09725481 434.09725481 434.09725481 444.684992732 444.684992732 444.684992732 455.272730654 455.272730654 455.272730654 465.860468576 465.860468576 465.860468576 476.448206498 476.448206498 476.448206498 487.035944421 487.035944421 487.035944421 497.623682343 497.623682343 497.623682343 508.211420265 508.211420265 508.211420265 518.799158187 518.799158187 518.799158187 529.386896109 529.386896109 529.386896109 539.974634032 539.974634032 539.974634032 550.562371954 550.562371954 550.562371954 561.150109876 561.150109876 561.150109876 571.737847798 571.737847798 571.737847798 582.32558572 582.32558572 582.32558572 592.913323642 592.913323642 592.913323642 603.501061565 603.501061565 603.501061565 614.088799487 614.088799487 614.088799487 624.676537409 624.676537409 624.676537409 635.264275331 635.264275331 635.264275331 645.852013253 645.852013253 645.852013253 656.439751176 656.439751176 656.439751176 667.027489098 667.027489098 667.027489098 677.61522702 677.61522702 677.61522702 688.202964942 688.202964942 688.202964942 698.790702864 698.790702864 698.790702864 709.378440787 709.378440787 709.378440787 719.966178709 719.966178709 719.966178709 730.553916631 730.553916631 730.553916631 741.141654553 741.141654553 741.141654553 751.729392475 751.729392475 751.729392475 762.317130397 762.317130397 762.317130397 772.90486832 772.90486832 772.90486832 783.492606242 783.492606242 783.492606242 794.080344164 794.080344164 794.080344164 804.668082086 804.668082086 804.668082086 815.255820008 815.255820008 815.255820008 825.843557931 825.843557931 825.843557931 836.431295853 836.431295853 836.431295853 847.019033775 847.019033775 847.019033775 857.606771697 857.606771697 857.606771697 868.194509619 868.194509619 868.194509619 878.782247542 878.782247542 878.782247542 889.369985464 889.369985464 889.369985464 899.957723386 899.957723386 899.957723386 910.545461308 910.545461308 910.545461308 921.13319923 921.13319923 921.13319923 931.720937152 931.720937152 931.720937152 942.308675075 942.308675075 942.308675075 952.896412997 952.896412997 952.896412997 963.484150919 963.484150919 963.484150919 974.071888841 974.071888841 974.071888841 984.659626763 984.659626763 984.659626763 995.247364686 995.247364686 995.247364686 1005.83510261 1005.83510261 1005.83510261 1016.42284053 1016.42284053 1016.42284053 1027.01057845 1027.01057845 1027.01057845 1037.59831637 1037.59831637 1037.59831637 1048.1860543 1048.1860543 1048.1860543 </DataArray>
<DataArray Name="time" format="ascii" type="Float32">0.0 10.5877379222 21.1754758444 31.7632137666 42.3509516887 52.9386896109 63.5264275331 74.1141654553 84.7019033775 95.2896412997 105.877379222 116.465117144 127.052855066 137.640592988 148.228330911 158.816068833 169.403806755 179.991544677 190.579282599 201.167020522 211.754758444 222.342496366 232.930234288 243.51797221 254.105710132 264.693448055 275.281185977 285.868923899 296.456661821 307.044399743 317.632137666 328.219875588 338.80761351 349.395351432 359.983089354 370.570827277 381.158565199 391.746303121 402.334041043 412.921778965 423.509516887 434.09725481 444.684992732 455.272730654 465.860468576 476.448206498 487.035944421 497.623682343 508.211420265 518.799158187 529.386896109 539.974634032 550.562371954 561.150109876 571.737847798 582.32558572 592.913323642 603.501061565 614.088799487 624.676537409 635.264275331 645.852013253 656.439751176 667.027489098 677.61522702 688.202964942 698.790702864 709.378440787 719.966178709 730.553916631 741.141654553 751.729392475 762.317130397 772.90486832 783.492606242 794.080344164 804.668082086 815.255820008 825.843557931 836.431295853 847.019033775 857.606771697 868.194509619 878.782247542 889.369985464 899.957723386 910.545461308 921.13319923 931.720937152 942.308675075 952.896412997 963.484150919 974.071888841 984.659626763 995.247364686 1005.83510261 1016.42284053 1027.01057845 1037.59831637 1048.1860543 </DataArray>
</PointData>
<CellData/>
<Cells>
<DataArray Name="connectivity" format="ascii" type="Int32">0</DataArray>
<DataArray Name="offsets" format="ascii" type="Int32">0</DataArray>
<DataArray Name="types" format="ascii" type="UInt8">11</DataArray>
</Cells>
</Piece>
</UnstructuredGrid>
</VTKFile>
