<?xml version="1.0" ?>
<VTKFile byte_order="LittleEndian" type="UnstructuredGrid" version="0.1">
<UnstructuredGrid>
<Piece NumberOfCells="0" NumberOfPoints="401">
<Points>
<DataArray NumberOfComponents="3" format="ascii" type="Float32">50.0 50.0 50.0 nan nan nan 50.0 50.0 50.0 nan nan nan 50.0 50.0 50.0 0.0 0.0 0.0 0.0 0.0 0.0 0.0 0.0 0.0 0.0 0.0 0.0 0.0 0.0 0.0 0.0 0.0 0.0 0.0 0.0 0.0 0.0 0.0 0.0 0.0 0.0 0.0 nan nan nan 0.0 0.0 0.0 0.0 0.0 0.0 0.0 0.0 0.0 0.0 0.0 0.0 0.0 0.0 0.0 0.0 0.0 0.0 0.0 0.0 0.0 0.0 0.0 0.0 0.0 0.0 0.0 0.0 0.0 0.0 0.0 0.0 0.0 0.0 0.0 0.0 0.0 0.0 0.0 0.0 0.0 0.0 0.0 0.0 0.0 0.0 0.0 0.0 0.0 0.0 0.0 0.0 0.0 0.0 0.0 0.0 0.0 0.0 0.0 0.0 0.0 0.0 0.0 0.0 0.0 0.0 50.0 50.0 50.0 50.0 50.0 50.0 50.0 50.0 50.0 50.0 50.0 50.0 50.0 50.0 50.0 -7.11361590728 -7.11361590728 -7.11361590728 0.0 0.0 0.0 0.0 0.0 0.0 0.0 0.0 0.0 0.0 0.0 0.0 0.0 0.0 0.0 0.0 0.0 0.0 0.0 0.0 0.0 0.0 0.0 0.0 0.0 0.0 0.0 0.0 0.0 0.0 0.0 0.0 0.0 0.0 0.0 0.0 0.0 0.0 0.0 0.0 0.0 0.0 0.0 0.0 0.0 0.0 0.0 0.0 0.0 0.0 0.0 0.0 0.0 0.0 0.0 0.0 0.0 0.0 0.0 0.0 0.0 0.0 0.0 0.0 0.0 0.0 0.0 0.0 0.0 0.0 0.0 0.0 0.0 0.0 0.0 0.0 0.0 0.0 0.0 0.0 0.0 0.0 0.0 0.0 0.0 0.0 0.0 0.0 0.0 0.0 -6.75281647706 -6.75281647706 -6.75281647706 50.0 50.0 50.0 50.0 50.0 50.0 50.0 50.0 50.0 50.0 50.0 50.0 50.0 50.0 50.0 -5.20303161075 -5.20303161075 -5.20303161075 0.0 0.0 0.0 0.0 0.0 0.0 0.0 0.0 0.0 0.0 0.0 0.0 0.0 0.0 0.0 0.0 0.0 0.0 0.0 0.0 0.0 0.0 0.0 0.0 0.0 0.0 0.0 0.0 0.0 0.0 0.0 0.0 0.0 0.0 0.0 0.0 0.0 0.0 0.0 0.0 0.0 0.0 0.0 0.0 0.0 0.0 0.0 0.0 0.0 0.0 0.0 0.0 0.0 0.0 0.0 0.0 0.0 0.0 0.0 0.0 0.0 0.0 0.0 0.0 0.0 0.0 0.0 0.0 0.0 0.0 0.0 0.0 0.0 0.0 0.0 0.0 0.0 0.0 0.0 0.0 0.0 0.0 0.0 0.0 0.0 0.0 0.0 0.0 0.0 0.0 3.83861085224 3.83861085224 3.83861085224 50.0 50.0 50.0 50.0 50.0 50.0 50.0 50.0 50.0 50.0 50.0 50.0 3.79617056917 3.79617056917 3.79617056917 0.0 0.0 0.0 0.0 0.0 0.0 0.0 0.0 0.0 0.0 0.0 0.0 0.0 0.0 0.0 0.0 0.0 0.0 0.0 0.0 0.0 0.0 0.0 0.0 0.0 0.0 0.0 0.0 0.0 0.0 0.0 0.0 0.0 0.0 0.0 0.0 0.0 0.0 0.0 0.0 0.0 0.0 0.0 0.0 0.0 0.0 0.0 0.0 0.0 0.0 0.0 0.0 0.0 0.0 0.0 0.0 0.0 0.0 0.0 0.0 0.0 0.0 0.0 0.0 0.0 0.0 0.0 0.0 0.0 0.0 0.0 0.0 0.0 0.0 0.0 0.0 0.0 0.0 0.0 0.0 0.0 0.0 0.0 0.0 0.0 0.0 0.0 0.0 0.0 0.0 -4.96984372665 -4.96984372665 -4.96984372665 50.0 50.0 50.0 50.0 50.0 50.0 50.0 50.0 50.0 50.0 50.0 50.0 50.0 50.0 50.0 -8.87591449861 -8.87591449861 -8.87591449861 0.0 0.0 0.0 0.0 0.0 0.0 0.0 0.0 0.0 0.0 0.0 0.0 0.0 0.0 0.0 0.0 0.0 0.0 0.0 0.0 0.0 0.0 0.0 0.0 0.0 0.0 0.0 0.0 0.0 0.0 0.0 0.0 0.0 0.0 0.0 0.0 0.0 0.0 0.0 0.0 0.0 0.0 0.0 0.0 0.0 0.0 0.0 0.0 0.0 0.0 0.0 0.0 0.0 0.0 0.0 0.0 0.0 0.0 0.0 0.0 0.0 0.0 0.0 0.0 0.0 0.0 0.0 0.0 0.0 0.0 0.0 0.0 0.0 0.0 0.0 0.0 0.0 0.0 0.0 0.0 0.0 0.0 0.0 0.0 0.0 0.0 0.0 0.0 0.0 0.0 -5.88105896708 -5.88105896708 -5.88105896708 50.0 50.0 50.0 50.0 50.0 50.0 50.0 50.0 50.0 50.0 50.0 50.0 39.0182542084 39.0182542084 39.0182542084 0.0 0.0 0.0 0.0 0.0 0.0 0.0 0.0 0.0 0.0 0.0 0.0 0.0 0.0 0.0 0.0 0.0 0.0 0.0 0.0 0.0 0.0 0.0 0.0 0.0 0.0 0.0 0.0 0.0 0.0 0.0 0.0 0.0 0.0 0.0 0.0 0.0 0.0 0.0 0.0 0.0 0.0 0.0 0.0 0.0 0.0 0.0 0.0 0.0 0.0 0.0 0.0 0.0 0.0 0.0 0.0 0.0 0.0 0.0 0.0 0.0 0.0 0.0 0.0 0.0 0.0 0.0 0.0 0.0 0.0 0.0 0.0 0.0 0.0 0.0 0.0 0.0 0.0 0.0 0.0 0.0 0.0 0.0 0.0 0.0 0.0 0.0 0.0 0.0 0.0 -5.23809942057 -5.23809942057 -5.23809942057 50.0 50.0 50.0 50.0 50.0 50.0 50.0 50.0 50.0 50.0 50.0 50.0 50.0 50.0 50.0 0.507797736511 0.507797736511 0.507797736511 0.0 0.0 0.0 0.0 0.0 0.0 0.0 0.0 0.0 0.0 0.0 0.0 0.0 0.0 0.0 0.0 0.0 0.0 0.0 0.0 0.0 0.0 0.0 0.0 0.0 0.0 0.0 0.0 0.0 0.0 0.0 0.0 0.0 0.0 0.0 0.0 0.0 0.0 0.0 0.0 0.0 0.0 0.0 0.0 0.0 0.0 0.0 0.0 0.0 0.0 0.0 0.0 0.0 0.0 0.0 0.0 0.0 0.0 0.0 0.0 0.0 0.0 0.0 0.0 0.0 0.0 0.0 0.0 0.0 0.0 0.0 0.0 0.0 0.0 0.0 0.0 0.0 0.0 0.0 0.0 0.0 0.0 0.0 0.0 0.0 0.0 0.0 0.0 0.0 0.0 11.7082344331 11.7082344331 11.7082344331 50.0 50.0 50.0 50.0 50.0 50.0 50.0 50.0 50.0 50.0 50.0 50.0 50.0 50.0 50.0 -7.19250859753 -7.19250859753 -7.19250859753 0.0 0.0 0.0 0.0 0.0 0.0 0.0 0.0 0.0 0.0 0.0 0.0 0.0 0.0 0.0 0.0 0.0 0.0 0.0 0.0 0.0 0.0 0.0 0.0 0.0 0.0 0.0 0.0 0.0 0.0 0.0 0.0 0.0 0.0 0.0 0.0 0.0 0.0 0.0 0.0 0.0 0.0 0.0 0.0 0.0 0.0 0.0 0.0 0.0 0.0 0.0 0.0 0.0 0.0 0.0 0.0 0.0 0.0 0.0 0.0 0.0 0.0 0.0 0.0 0.0 0.0 0.0 0.0 0.0 0.0 0.0 0.0 0.0 0.0 0.0 0.0 0.0 0.0 0.0 0.0 0.0 0.0 0.0 0.0 0.0 0.0 0.0 0.0 0.0 0.0 25.7993465963 25.7993465963 25.7993465963 50.0 50.0 50.0 50.0 50.0 50.0 50.0 50.0 50.0 50.0 50.0 50.0 19.4345848817 19.4345848817 19.4345848817 0.0 0.0 0.0 0.0 0.0 0.0 0.0 0.0 0.0 0.0 0.0 0.0 0.0 0.0 0.0 0.0 0.0 0.0 0.0 0.0 0.0 0.0 0.0 0.0 0.0 0.0 0.0 0.0 0.0 0.0 0.0 0.0 0.0 0.0 0.0 0.0 0.0 0.0 0.0 0.0 0.0 0.0 0.0 0.0 0.0 0.0 0.0 0.0 0.0 0.0 0.0 0.0 0.0 0.0 0.0 0.0 0.0 0.0 0.0 0.0 0.0 0.0 0.0 0.0 0.0 0.0 0.0 0.0 0.0 0.0 0.0 0.0 0.0 0.0 0.0 0.0 0.0 0.0 0.0 0.0 0.0 0.0 0.0 0.0 0.0 0.0 0.0 0.0 0.0 0.0 -7.79607902403 -7.79607902403 -7.79607902403 50.0 50.0 50.0 50.0 50.0 50.0 50.0 50.0 50.0 50.0 50.0 50.0 50.0 50.0 50.0 -7.55671302242 -7.55671302242 -7.55671302242 0.0 0.0 0.0 0.0 0.0 0.0 0.0 0.0 0.0 0.0 0.0 0.0 0.0 0.0 0.0 0.0 0.0 0.0 0.0 0.0 0.0 0.0 0.0 0.0 0.0 0.0 0.0 0.0 0.0 0.0 0.0 0.0 0.0 0.0 0.0 0.0 0.0 0.0 0.0 0.0 0.0 0.0 0.0 0.0 0.0 0.0 0.0 0.0 0.0 0.0 0.0 0.0 0.0 0.0 0.0 0.0 0.0 0.0 0.0 0.0 0.0 0.0 0.0 0.0 0.0 0.0 0.0 0.0 0.0 0.0 0.0 0.0 0.0 0.0 0.0 0.0 0.0 0.0 0.0 0.0 0.0 0.0 0.0 0.0 0.0 0.0 0.0 0.0 0.0 0.0 -10.2008034982 -10.2008034982 -10.2008034982 -7.21079319761 -7.21079319761 -7.21079319761 -3.64194867746 -3.64194867746 -3.64194867746 -0.913141752014 -0.913141752014 -0.913141752014 1.42961527012 1.42961527012 1.42961527012 2.43349564759 2.43349564759 2.43349564759 0.941514218011 0.941514218011 0.941514218011 -0.164583818147 -0.164583818147 -0.164583818147 -1.00899787502 -1.00899787502 -1.00899787502 -1.70620582088 -1.70620582088 -1.70620582088 -2.19528367158 -2.19528367158 -2.19528367158 -2.56687113919 -2.56687113919 -2.56687113919 -2.79085123745 -2.79085123745 -2.79085123745 -3.07321415507 -3.07321415507 -3.07321415507 -3.21423699126 -3.21423699126 -3.21423699126 -3.34682099996 -3.34682099996 -3.34682099996 -3.45375843214 -3.45375843214 -3.45375843214 -3.52442345338 -3.52442345338 -3.52442345338 -3.58119546582 -3.58119546582 -3.58119546582 -3.65285227256 -3.65285227256 -3.65285227256 -3.67405373996 -3.67405373996 -3.67405373996 -3.71251624938 -3.71251624938 -3.71251624938 -3.73473207972 -3.73473207972 -3.73473207972 -3.76667058462 -3.76667058462 -3.76667058462 -3.77279223338 -3.77279223338 -3.77279223338 -3.79924380478 -3.79924380478 -3.79924380478 -3.79924380478 -3.79924380478 -3.79924380478 -3.82314781395 -3.82314781395 -3.82314781395 -3.83647412376 -3.83647412376 -3.83647412376 -3.83647412376 -3.83647412376 -3.83647412376 -3.83647412376 -3.83647412376 -3.83647412376 -3.83647412376 -3.83647412376 -3.83647412376 -3.83647412376 -3.83647412376 -3.83647412376 -3.83647412376 -3.83647412376 -3.83647412376 -3.84936675875 -3.84936675875 -3.84936675875 </DataArray>
</Points>
<PointData>
<DataArray Name="Points" format="ascii" type="Float32">50.0 50.0 50.0 nan nan nan 50.0 50.0 50.0 nan nan nan 50.0 50.0 50.0 0.0 0.0 0.0 0.0 0.0 0.0 0.0 0.0 0.0 0.0 0.0 0.0 0.0 0.0 0.0 0.0 0.0 0.0 0.0 0.0 0.0 0.0 0.0 0.0 0.0 0.0 0.0 nan nan nan 0.0 0.0 0.0 0.0 0.0 0.0 0.0 0.0 0.0 0.0 0.0 0.0 0.0 0.0 0.0 0.0 0.0 0.0 0.0 0.0 0.0 0.0 0.0 0.0 0.0 0.0 0.0 0.0 0.0 0.0 0.0 0.0 0.0 0.0 0.0 0.0 0.0 0.0 0.0 0.0 0.0 0.0 0.0 0.0 0.0 0.0 0.0 0.0 0.0 0.0 0.0 0.0 0.0 0.0 0.0 0.0 0.0 0.0 0.0 0.0 0.0 0.0 0.0 0.0 0.0 0.0 50.0 50.0 50.0 50.0 50.0 50.0 50.0 50.0 50.0 50.0 50.0 50.0 50.0 50.0 50.0 -7.11361590728 -7.11361590728 -7.11361590728 0.0 0.0 0.0 0.0 0.0 0.0 0.0 0.0 0.0 0.0 0.0 0.0 0.0 0.0 0.0 0.0 0.0 0.0 0.0 0.0 0.0 0.0 0.0 0.0 0.0 0.0 0.0 0.0 0.0 0.0 0.0 0.0 0.0 0.0 0.0 0.0 0.0 0.0 0.0 0.0 0.0 0.0 0.0 0.0 0.0 0.0 0.0 0.0 0.0 0.0 0.0 0.0 0.0 0.0 0.0 0.0 0.0 0.0 0.0 0.0 0.0 0.0 0.0 0.0 0.0 0.0 0.0 0.0 0.0 0.0 0.0 0.0 0.0 0.0 0.0 0.0 0.0 0.0 0.0 0.0 0.0 0.0 0.0 0.0 0.0 0.0 0.0 0.0 0.0 0.0 -6.75281647706 -6.75281647706 -6.75281647706 50.0 50.0 50.0 50.0 50.0 50.0 50.0 50.0 50.0 50.0 50.0 50.0 50.0 50.0 50.0 -5.20303161075 -5.20303161075 -5.20303161075 0.0 0.0 0.0 0.0 0.0 0.0 0.0 0.0 0.0 0.0 0.0 0.0 0.0 0.0 0.0 0.0 0.0 0.0 0.0 0.0 0.0 0.0 0.0 0.0 0.0 0.0 0.0 0.0 0.0 0.0 0.0 0.0 0.0 0.0 0.0 0.0 0.0 0.0 0.0 0.0 0.0 0.0 0.0 0.0 0.0 0.0 0.0 0.0 0.0 0.0 0.0 0.0 0.0 0.0 0.0 0.0 0.0 0.0 0.0 0.0 0.0 0.0 0.0 0.0 0.0 0.0 0.0 0.0 0.0 0.0 0.0 0.0 0.0 0.0 0.0 0.0 0.0 0.0 0.0 0.0 0.0 0.0 0.0 0.0 0.0 0.0 0.0 0.0 0.0 0.0 3.83861085224 3.83861085224 3.83861085224 50.0 50.0 50.0 50.0 50.0 50.0 50.0 50.0 50.0 50.0 50.0 50.0 3.79617056917 3.79617056917 3.79617056917 0.0 0.0 0.0 0.0 0.0 0.0 0.0 0.0 0.0 0.0 0.0 0.0 0.0 0.0 0.0 0.0 0.0 0.0 0.0 0.0 0.0 0.0 0.0 0.0 0.0 0.0 0.0 0.0 0.0 0.0 0.0 0.0 0.0 0.0 0.0 0.0 0.0 0.0 0.0 0.0 0.0 0.0 0.0 0.0 0.0 0.0 0.0 0.0 0.0 0.0 0.0 0.0 0.0 0.0 0.0 0.0 0.0 0.0 0.0 0.0 0.0 0.0 0.0 0.0 0.0 0.0 0.0 0.0 0.0 0.0 0.0 0.0 0.0 0.0 0.0 0.0 0.0 0.0 0.0 0.0 0.0 0.0 0.0 0.0 0.0 0.0 0.0 0.0 0.0 0.0 -4.96984372665 -4.96984372665 -4.96984372665 50.0 50.0 50.0 50.0 50.0 50.0 50.0 50.0 50.0 50.0 50.0 50.0 50.0 50.0 50.0 -8.87591449861 -8.87591449861 -8.87591449861 0.0 0.0 0.0 0.0 0.0 0.0 0.0 0.0 0.0 0.0 0.0 0.0 0.0 0.0 0.0 0.0 0.0 0.0 0.0 0.0 0.0 0.0 0.0 0.0 0.0 0.0 0.0 0.0 0.0 0.0 0.0 0.0 0.0 0.0 0.0 0.0 0.0 0.0 0.0 0.0 0.0 0.0 0.0 0.0 0.0 0.0 0.0 0.0 0.0 0.0 0.0 0.0 0.0 0.0 0.0 0.0 0.0 0.0 0.0 0.0 0.0 0.0 0.0 0.0 0.0 0.0 0.0 0.0 0.0 0.0 0.0 0.0 0.0 0.0 0.0 0.0 0.0 0.0 0.0 0.0 0.0 0.0 0.0 0.0 0.0 0.0 0.0 0.0 0.0 0.0 -5.88105896708 -5.88105896708 -5.88105896708 50.0 50.0 50.0 50.0 50.0 50.0 50.0 50.0 50.0 50.0 50.0 50.0 39.0182542084 39.0182542084 39.0182542084 0.0 0.0 0.0 0.0 0.0 0.0 0.0 0.0 0.0 0.0 0.0 0.0 0.0 0.0 0.0 0.0 0.0 0.0 0.0 0.0 0.0 0.0 0.0 0.0 0.0 0.0 0.0 0.0 0.0 0.0 0.0 0.0 0.0 0.0 0.0 0.0 0.0 0.0 0.0 0.0 0.0 0.0 0.0 0.0 0.0 0.0 0.0 0.0 0.0 0.0 0.0 0.0 0.0 0.0 0.0 0.0 0.0 0.0 0.0 0.0 0.0 0.0 0.0 0.0 0.0 0.0 0.0 0.0 0.0 0.0 0.0 0.0 0.0 0.0 0.0 0.0 0.0 0.0 0.0 0.0 0.0 0.0 0.0 0.0 0.0 0.0 0.0 0.0 0.0 0.0 -5.23809942057 -5.23809942057 -5.23809942057 50.0 50.0 50.0 50.0 50.0 50.0 50.0 50.0 50.0 50.0 50.0 50.0 50.0 50.0 50.0 0.507797736511 0.507797736511 0.507797736511 0.0 0.0 0.0 0.0 0.0 0.0 0.0 0.0 0.0 0.0 0.0 0.0 0.0 0.0 0.0 0.0 0.0 0.0 0.0 0.0 0.0 0.0 0.0 0.0 0.0 0.0 0.0 0.0 0.0 0.0 0.0 0.0 0.0 0.0 0.0 0.0 0.0 0.0 0.0 0.0 0.0 0.0 0.0 0.0 0.0 0.0 0.0 0.0 0.0 0.0 0.0 0.0 0.0 0.0 0.0 0.0 0.0 0.0 0.0 0.0 0.0 0.0 0.0 0.0 0.0 0.0 0.0 0.0 0.0 0.0 0.0 0.0 0.0 0.0 0.0 0.0 0.0 0.0 0.0 0.0 0.0 0.0 0.0 0.0 0.0 0.0 0.0 0.0 0.0 0.0 11.7082344331 11.7082344331 11.7082344331 50.0 50.0 50.0 50.0 50.0 50.0 50.0 50.0 50.0 50.0 50.0 50.0 50.0 50.0 50.0 -7.19250859753 -7.19250859753 -7.19250859753 0.0 0.0 0.0 0.0 0.0 0.0 0.0 0.0 0.0 0.0 0.0 0.0 0.0 0.0 0.0 0.0 0.0 0.0 0.0 0.0 0.0 0.0 0.0 0.0 0.0 0.0 0.0 0.0 0.0 0.0 0.0 0.0 0.0 0.0 0.0 0.0 0.0 0.0 0.0 0.0 0.0 0.0 0.0 0.0 0.0 0.0 0.0 0.0 0.0 0.0 0.0 0.0 0.0 0.0 0.0 0.0 0.0 0.0 0.0 0.0 0.0 0.0 0.0 0.0 0.0 0.0 0.0 0.0 0.0 0.0 0.0 0.0 0.0 0.0 0.0 0.0 0.0 0.0 0.0 0.0 0.0 0.0 0.0 0.0 0.0 0.0 0.0 0.0 0.0 0.0 25.7993465963 25.7993465963 25.7993465963 50.0 50.0 50.0 50.0 50.0 50.0 50.0 50.0 50.0 50.0 50.0 50.0 19.4345848817 19.4345848817 19.4345848817 0.0 0.0 0.0 0.0 0.0 0.0 0.0 0.0 0.0 0.0 0.0 0.0 0.0 0.0 0.0 0.0 0.0 0.0 0.0 0.0 0.0 0.0 0.0 0.0 0.0 0.0 0.0 0.0 0.0 0.0 0.0 0.0 0.0 0.0 0.0 0.0 0.0 0.0 0.0 0.0 0.0 0.0 0.0 0.0 0.0 0.0 0.0 0.0 0.0 0.0 0.0 0.0 0.0 0.0 0.0 0.0 0.0 0.0 0.0 0.0 0.0 0.0 0.0 0.0 0.0 0.0 0.0 0.0 0.0 0.0 0.0 0.0 0.0 0.0 0.0 0.0 0.0 0.0 0.0 0.0 0.0 0.0 0.0 0.0 0.0 0.0 0.0 0.0 0.0 0.0 -7.79607902403 -7.79607902403 -7.79607902403 50.0 50.0 50.0 50.0 50.0 50.0 50.0 50.0 50.0 50.0 50.0 50.0 50.0 50.0 50.0 -7.55671302242 -7.55671302242 -7.55671302242 0.0 0.0 0.0 0.0 0.0 0.0 0.0 0.0 0.0 0.0 0.0 0.0 0.0 0.0 0.0 0.0 0.0 0.0 0.0 0.0 0.0 0.0 0.0 0.0 0.0 0.0 0.0 0.0 0.0 0.0 0.0 0.0 0.0 0.0 0.0 0.0 0.0 0.0 0.0 0.0 0.0 0.0 0.0 0.0 0.0 0.0 0.0 0.0 0.0 0.0 0.0 0.0 0.0 0.0 0.0 0.0 0.0 0.0 0.0 0.0 0.0 0.0 0.0 0.0 0.0 0.0 0.0 0.0 0.0 0.0 0.0 0.0 0.0 0.0 0.0 0.0 0.0 0.0 0.0 0.0 0.0 0.0 0.0 0.0 0.0 0.0 0.0 0.0 0.0 0.0 -10.2008034982 -10.2008034982 -10.2008034982 -7.21079319761 -7.21079319761 -7.21079319761 -3.64194867746 -3.64194867746 -3.64194867746 -0.913141752014 -0.913141752014 -0.913141752014 1.42961527012 1.42961527012 1.42961527012 2.43349564759 2.43349564759 2.43349564759 0.941514218011 0.941514218011 0.941514218011 -0.164583818147 -0.164583818147 -0.164583818147 -1.00899787502 -1.00899787502 -1.00899787502 -1.70620582088 -1.70620582088 -1.70620582088 -2.19528367158 -2.19528367158 -2.19528367158 -2.56687113919 -2.56687113919 -2.56687113919 -2.79085123745 -2.79085123745 -2.79085123745 -3.07321415507 -3.07321415507 -3.07321415507 -3.21423699126 -3.21423699126 -3.21423699126 -3.34682099996 -3.34682099996 -3.34682099996 -3.45375843214 -3.45375843214 -3.45375843214 -3.52442345338 -3.52442345338 -3.52442345338 -3.58119546582 -3.58119546582 -3.58119546582 -3.65285227256 -3.65285227256 -3.65285227256 -3.67405373996 -3.67405373996 -3.67405373996 -3.71251624938 -3.71251624938 -3.71251624938 -3.73473207972 -3.73473207972 -3.73473207972 -3.76667058462 -3.76667058462 -3.76667058462 -3.77279223338 -3.77279223338 -3.77279223338 -3.79924380478 -3.79924380478 -3.79924380478 -3.79924380478 -3.79924380478 -3.79924380478 -3.82314781395 -3.82314781395 -3.82314781395 -3.83647412376 -3.83647412376 -3.83647412376 -3.83647412376 -3.83647412376 -3.83647412376 -3.83647412376 -3.83647412376 -3.83647412376 -3.83647412376 -3.83647412376 -3.83647412376 -3.83647412376 -3.83647412376 -3.83647412376 -3.83647412376 -3.83647412376 -3.83647412376 -3.84936675875 -3.84936675875 -3.84936675875 </DataArray>
<DataArray Name="function -1 stddev" format="ascii" type="Float32">50.0 nan 50.0 nan 50.0 0.0 0.0 0.0 0.0 0.0 0.0 0.0 0.0 0.0 nan 0.0 0.0 0.0 0.0 0.0 0.0 0.0 0.0 0.0 0.0 0.0 0.0 0.0 0.0 0.0 0.0 0.0 0.0 0.0 0.0 0.0 0.0 50.0 50.0 50.0 50.0 50.0 -7.11361590728 0.0 0.0 0.0 0.0 0.0 0.0 0.0 0.0 0.0 0.0 0.0 0.0 0.0 0.0 0.0 0.0 0.0 0.0 0.0 0.0 0.0 0.0 0.0 0.0 0.0 0.0 0.0 0.0 0.0 0.0 -6.75281647706 50.0 50.0 50.0 50.0 50.0 -5.20303161075 0.0 0.0 0.0 0.0 0.0 0.0 0.0 0.0 0.0 0.0 0.0 0.0 0.0 0.0 0.0 0.0 0.0 0.0 0.0 0.0 0.0 0.0 0.0 0.0 0.0 0.0 0.0 0.0 0.0 0.0 3.83861085224 50.0 50.0 50.0 50.0 3.79617056917 0.0 0.0 0.0 0.0 0.0 0.0 0.0 0.0 0.0 0.0 0.0 0.0 0.0 0.0 0.0 0.0 0.0 0.0 0.0 0.0 0.0 0.0 0.0 0.0 0.0 0.0 0.0 0.0 0.0 0.0 -4.96984372665 50.0 50.0 50.0 50.0 50.0 -8.87591449861 0.0 0.0 0.0 0.0 0.0 0.0 0.0 0.0 0.0 0.0 0.0 0.0 0.0 0.0 0.0 0.0 0.0 0.0 0.0 0.0 0.0 0.0 0.0 0.0 0.0 0.0 0.0 0.0 0.0 0.0 -5.88105896708 50.0 50.0 50.0 50.0 39.0182542084 0.0 0.0 0.0 0.0 0.0 0.0 0.0 0.0 0.0 0.0 0.0 0.0 0.0 0.0 0.0 0.0 0.0 0.0 0.0 0.0 0.0 0.0 0.0 0.0 0.0 0.0 0.0 0.0 0.0 0.0 -5.23809942057 50.0 50.0 50.0 50.0 50.0 0.507797736511 0.0 0.0 0.0 0.0 0.0 0.0 0.0 0.0 0.0 0.0 0.0 0.0 0.0 0.0 0.0 0.0 0.0 0.0 0.0 0.0 0.0 0.0 0.0 0.0 0.0 0.0 0.0 0.0 0.0 0.0 11.7082344331 50.0 50.0 50.0 50.0 50.0 -7.19250859753 0.0 0.0 0.0 0.0 0.0 0.0 0.0 0.0 0.0 0.0 0.0 0.0 0.0 0.0 0.0 0.0 0.0 0.0 0.0 0.0 0.0 0.0 0.0 0.0 0.0 0.0 0.0 0.0 0.0 0.0 25.7993465963 50.0 50.0 50.0 50.0 19.4345848817 0.0 0.0 0.0 0.0 0.0 0.0 0.0 0.0 0.0 0.0 0.0 0.0 0.0 0.0 0.0 0.0 0.0 0.0 0.0 0.0 0.0 0.0 0.0 0.0 0.0 0.0 0.0 0.0 0.0 0.0 -7.79607902403 50.0 50.0 50.0 50.0 50.0 -7.55671302242 0.0 0.0 0.0 0.0 0.0 0.0 0.0 0.0 0.0 0.0 0.0 0.0 0.0 0.0 0.0 0.0 0.0 0.0 0.0 0.0 0.0 0.0 0.0 0.0 0.0 0.0 0.0 0.0 0.0 0.0 -10.2008034982 -7.21079319761 -3.64194867746 -0.913141752014 1.42961527012 2.43349564759 0.941514218011 -0.164583818147 -1.00899787502 -1.70620582088 -2.19528367158 -2.56687113919 -2.79085123745 -3.07321415507 -3.21423699126 -3.34682099996 -3.45375843214 -3.52442345338 -3.58119546582 -3.65285227256 -3.67405373996 -3.71251624938 -3.73473207972 -3.76667058462 -3.77279223338 -3.79924380478 -3.79924380478 -3.82314781395 -3.83647412376 -3.83647412376 -3.83647412376 -3.83647412376 -3.83647412376 -3.83647412376 -3.84936675875 </DataArray>
<DataArray Name="function +1 stddev" format="ascii" type="Float32">50.0 nan 50.0 nan 50.0 0.0 0.0 0.0 0.0 0.0 0.0 0.0 0.0 0.0 nan 0.0 0.0 0.0 0.0 0.0 0.0 0.0 0.0 0.0 0.0 0.0 0.0 0.0 0.0 0.0 0.0 0.0 0.0 0.0 0.0 0.0 0.0 50.0 50.0 50.0 50.0 50.0 10.21096104 0.0 0.0 0.0 0.0 0.0 0.0 0.0 0.0 0.0 0.0 0.0 0.0 0.0 0.0 0.0 0.0 0.0 0.0 0.0 0.0 0.0 0.0 0.0 0.0 0.0 0.0 0.0 0.0 0.0 0.0 9.45141016768 50.0 50.0 50.0 50.0 50.0 43.3787072864 0.0 0.0 0.0 0.0 0.0 0.0 0.0 0.0 0.0 0.0 0.0 0.0 0.0 0.0 0.0 0.0 0.0 0.0 0.0 0.0 0.0 0.0 0.0 0.0 0.0 0.0 0.0 0.0 0.0 0.0 53.3230579094 50.0 50.0 50.0 50.0 53.2912993245 0.0 0.0 0.0 0.0 0.0 0.0 0.0 0.0 0.0 0.0 0.0 0.0 0.0 0.0 0.0 0.0 0.0 0.0 0.0 0.0 0.0 0.0 0.0 0.0 0.0 0.0 0.0 0.0 0.0 0.0 43.7565579732 50.0 50.0 50.0 50.0 50.0 14.8796039167 0.0 0.0 0.0 0.0 0.0 0.0 0.0 0.0 0.0 0.0 0.0 0.0 0.0 0.0 0.0 0.0 0.0 0.0 0.0 0.0 0.0 0.0 0.0 0.0 0.0 0.0 0.0 0.0 0.0 0.0 42.2151153662 50.0 50.0 50.0 50.0 57.4574883339 0.0 0.0 0.0 0.0 0.0 0.0 0.0 0.0 0.0 0.0 0.0 0.0 0.0 0.0 0.0 0.0 0.0 0.0 0.0 0.0 0.0 0.0 0.0 0.0 0.0 0.0 0.0 0.0 0.0 0.0 6.67904632853 50.0 50.0 50.0 50.0 50.0 50.4976867242 0.0 0.0 0.0 0.0 0.0 0.0 0.0 0.0 0.0 0.0 0.0 0.0 0.0 0.0 0.0 0.0 0.0 0.0 0.0 0.0 0.0 0.0 0.0 0.0 0.0 0.0 0.0 0.0 0.0 0.0 57.7616997135 50.0 50.0 50.0 50.0 50.0 10.3834891237 0.0 0.0 0.0 0.0 0.0 0.0 0.0 0.0 0.0 0.0 0.0 0.0 0.0 0.0 0.0 0.0 0.0 0.0 0.0 0.0 0.0 0.0 0.0 0.0 0.0 0.0 0.0 0.0 0.0 0.0 60.3463017163 50.0 50.0 50.0 50.0 59.9145550532 0.0 0.0 0.0 0.0 0.0 0.0 0.0 0.0 0.0 0.0 0.0 0.0 0.0 0.0 0.0 0.0 0.0 0.0 0.0 0.0 0.0 0.0 0.0 0.0 0.0 0.0 0.0 0.0 0.0 0.0 38.2067104401 50.0 50.0 50.0 50.0 50.0 38.7862408646 0.0 0.0 0.0 0.0 0.0 0.0 0.0 0.0 0.0 0.0 0.0 0.0 0.0 0.0 0.0 0.0 0.0 0.0 0.0 0.0 0.0 0.0 0.0 0.0 0.0 0.0 0.0 0.0 0.0 0.0 28.3020346883 39.5761723913 45.7277296383 49.0522157927 51.3521718969 52.2167757332 50.9073206233 49.8343254641 48.9485287552 48.1684822691 47.5924001829 47.1374708491 46.8556305674 46.491734388 46.3062627178 46.1295465923 45.9853194182 45.8891662508 45.8114215215 45.7126545051 45.6832937928 45.6298669562 45.5989119205 45.554285769 45.5457155411 45.5086215108 45.5086215108 45.4750128228 45.4562401264 45.4562401264 45.4562401264 45.4562401264 45.4562401264 45.4562401264 45.4380536652 </DataArray>
<DataArray Name="function coefficient of variation" format="ascii" type="Float32">0.0 0.0 0.0 0.0 0.0 0.0 0.0 0.0 0.0 0.0 0.0 0.0 0.0 0.0 0.0 0.0 0.0 0.0 0.0 0.0 0.0 0.0 0.0 0.0 0.0 0.0 0.0 0.0 0.0 0.0 0.0 0.0 0.0 0.0 0.0 0.0 0.0 0.0 0.0 0.0 0.0 0.0 0.0 0.0 0.0 0.0 0.0 0.0 0.0 0.0 0.0 0.0 0.0 0.0 0.0 0.0 0.0 0.0 0.0 0.0 0.0 0.0 0.0 0.0 0.0 0.0 0.0 0.0 0.0 0.0 0.0 0.0 0.0 0.0 0.0 0.0 0.0 0.0 0.0 0.0 0.0 0.0 0.0 0.0 0.0 0.0 0.0 0.0 0.0 0.0 0.0 0.0 0.0 0.0 0.0 0.0 0.0 0.0 0.0 0.0 0.0 0.0 0.0 0.0 0.0 0.0 0.0 0.0 0.0 0.0 0.0 0.0 0.0 0.0 0.0 0.0 0.0 0.0 0.0 0.0 0.0 0.0 0.0 0.0 0.0 0.0 0.0 0.0 0.0 0.0 0.0 0.0 0.0 0.0 0.0 0.0 0.0 0.0 0.0 0.0 0.0 0.0 0.0 0.0 0.0 0.0 0.0 0.0 0.0 0.0 0.0 0.0 0.0 0.0 0.0 0.0 0.0 0.0 0.0 0.0 0.0 0.0 0.0 0.0 0.0 0.0 0.0 0.0 0.0 0.0 0.0 0.0 0.0 0.0 0.0 0.0 0.0 0.0 0.0 0.0 0.0 0.0 0.0 0.0 0.0 0.0 0.0 0.0 0.0 0.0 0.0 0.0 0.0 0.0 0.0 0.0 0.0 0.0 0.0 0.0 0.0 0.0 0.0 0.0 0.0 0.0 0.0 0.0 0.0 0.0 0.0 0.0 0.0 0.0 0.0 0.0 0.0 0.0 0.0 0.0 0.0 0.0 0.0 0.0 0.0 0.0 0.0 0.0 0.0 0.0 0.0 0.0 0.0 0.0 0.0 0.0 0.0 0.0 0.0 0.0 0.0 0.0 0.0 0.0 0.0 0.0 0.0 0.0 0.0 0.0 0.0 0.0 0.0 0.0 0.0 0.0 0.0 0.0 0.0 0.0 0.0 0.0 0.0 0.0 0.0 0.0 0.0 0.0 0.0 0.0 0.0 0.0 0.0 0.0 0.0 0.0 0.0 0.0 0.0 0.0 0.0 0.0 0.0 0.0 0.0 0.0 0.0 0.0 0.0 0.0 0.0 0.0 0.0 0.0 0.0 0.0 0.0 0.0 0.0 0.0 0.0 0.0 0.0 0.0 0.0 0.0 0.0 0.0 0.0 0.0 0.0 0.0 0.0 0.0 0.0 0.0 0.0 0.0 0.0 0.0 0.0 0.0 0.0 0.0 0.0 0.0 0.0 0.0 0.0 0.0 0.0 0.0 0.0 0.0 0.0 0.0 0.0 0.0 0.0 0.0 0.0 0.0 0.0 0.0 0.0 0.0 0.0 0.0 0.0 0.0 0.0 0.0 0.0 0.0 0.0 0.0 0.0 0.0 0.0 0.0 0.0 0.0 0.0 0.0 0.0 0.0 0.0 0.0 0.0 0.0 0.0 0.0 0.0 0.0 0.0 0.0 0.0 0.0 0.0 0.0 0.0 0.0 0.0 0.0 0.0 0.0 0.0 0.0 0.0 0.0 0.0 0.0 0.0 0.0 0.0 0.0 0.0 0.0 0.0 0.0 0.0 </DataArray>
<DataArray Name="time" format="ascii" type="Float32">0.0 2.73354222562 5.46708445125 8.20062667687 10.9341689025 13.6677111281 16.4012533537 19.1347955794 21.868337805 24.6018800306 27.3354222562 30.0689644819 32.8025067075 35.5360489331 38.2695911587 41.0031333844 43.73667561 46.4702178356 49.2037600612 51.9373022868 54.6708445125 57.4043867381 60.1379289637 62.8714711893 65.605013415 68.3385556406 71.0720978662 73.8056400918 76.5391823175 79.2727245431 82.0062667687 84.7398089943 87.47335122 90.2068934456 92.9404356712 95.6739778968 98.4075201224 101.141062348 103.874604574 106.608146799 109.341689025 112.075231251 114.808773476 117.542315702 120.275857927 123.009400153 125.742942379 128.476484604 131.21002683 133.943569056 136.677111281 139.410653507 142.144195732 144.877737958 147.611280184 150.344822409 153.078364635 155.811906861 158.545449086 161.278991312 164.012533537 166.746075763 169.479617989 172.213160214 174.94670244 177.680244666 180.413786891 183.147329117 185.880871342 188.614413568 191.347955794 194.081498019 196.815040245 199.548582471 202.282124696 205.015666922 207.749209147 210.482751373 213.216293599 215.949835824 218.68337805 221.416920276 224.150462501 226.884004727 229.617546952 232.351089178 235.084631404 237.818173629 240.551715855 243.28525808 246.018800306 248.752342532 251.485884757 254.219426983 256.952969209 259.686511434 262.42005366 265.153595885 267.887138111 270.620680337 273.354222562 276.087764788 278.821307014 281.554849239 284.288391465 287.02193369 289.755475916 292.489018142 295.222560367 297.956102593 300.689644819 303.423187044 306.15672927 308.890271495 311.623813721 314.357355947 317.090898172 319.824440398 322.557982624 325.291524849 328.025067075 330.7586093 333.492151526 336.225693752 338.959235977 341.692778203 344.426320429 347.159862654 349.89340488 352.626947105 355.360489331 358.094031557 360.827573782 363.561116008 366.294658234 369.028200459 371.761742685 374.49528491 377.228827136 379.962369362 382.695911587 385.429453813 388.162996039 390.896538264 393.63008049 396.363622715 399.097164941 401.830707167 404.564249392 407.297791618 410.031333844 412.764876069 415.498418295 418.23196052 420.965502746 423.699044972 426.432587197 429.166129423 431.899671649 434.633213874 437.3667561 440.100298325 442.833840551 445.567382777 448.300925002 451.034467228 453.768009454 456.501551679 459.235093905 461.96863613 464.702178356 467.435720582 470.169262807 472.902805033 475.636347258 478.369889484 481.10343171 483.836973935 486.570516161 489.304058387 492.037600612 494.771142838 497.504685063 500.238227289 502.971769515 505.70531174 508.438853966 511.172396192 513.905938417 516.639480643 519.373022868 522.106565094 524.84010732 527.573649545 530.307191771 533.040733997 535.774276222 538.507818448 541.241360673 543.974902899 546.708445125 549.44198735 552.175529576 554.909071802 557.642614027 560.376156253 563.109698478 565.843240704 568.57678293 571.310325155 574.043867381 576.777409607 579.510951832 582.244494058 584.978036283 587.711578509 590.445120735 593.17866296 595.912205186 598.645747412 601.379289637 604.112831863 606.846374088 609.579916314 612.31345854 615.047000765 617.780542991 620.514085217 623.247627442 625.981169668 628.714711893 631.448254119 634.181796345 636.91533857 639.648880796 642.382423022 645.115965247 647.849507473 650.583049698 653.316591924 656.05013415 658.783676375 661.517218601 664.250760827 666.984303052 669.717845278 672.451387503 675.184929729 677.918471955 680.65201418 683.385556406 686.119098632 688.852640857 691.586183083 694.319725308 697.053267534 699.78680976 702.520351985 705.253894211 707.987436437 710.720978662 713.454520888 716.188063113 718.921605339 721.655147565 724.38868979 727.122232016 729.855774241 732.589316467 735.322858693 738.056400918 740.789943144 743.52348537 746.257027595 748.990569821 751.724112046 754.457654272 757.191196498 759.924738723 762.658280949 765.391823175 768.1253654 770.858907626 773.592449851 776.325992077 779.059534303 781.793076528 784.526618754 787.26016098 789.993703205 792.727245431 795.460787656 798.194329882 800.927872108 803.661414333 806.394956559 809.128498785 811.86204101 814.595583236 817.329125461 820.062667687 822.796209913 825.529752138 828.263294364 830.99683659 833.730378815 836.463921041 839.197463266 841.931005492 844.664547718 847.398089943 850.131632169 852.865174395 855.59871662 858.332258846 861.065801071 863.799343297 866.532885523 869.266427748 871.999969974 874.7335122 877.467054425 880.200596651 882.934138876 885.667681102 888.401223328 891.134765553 893.868307779 896.601850005 899.33539223 902.068934456 904.802476681 907.536018907 910.269561133 913.003103358 915.736645584 918.47018781 921.203730035 923.937272261 926.670814486 929.404356712 932.137898938 934.871441163 937.604983389 940.338525615 943.07206784 945.805610066 948.539152291 951.272694517 954.006236743 956.739778968 959.473321194 962.206863419 964.940405645 967.673947871 970.407490096 973.141032322 975.874574548 978.608116773 981.341658999 984.075201224 986.80874345 989.542285676 992.275827901 995.009370127 997.742912353 1000.47645458 1003.2099968 1005.94353903 1008.67708126 1011.41062348 1014.14416571 1016.87770793 1019.61125016 1022.34479238 1025.07833461 1027.81187683 1030.54541906 1033.27896129 1036.01250351 1038.74604574 1041.47958796 1044.21313019 1046.94667241 1049.68021464 1052.41375687 1055.14729909 1057.88084132 1060.61438354 1063.34792577 1066.08146799 1068.81501022 1071.54855244 1074.28209467 1077.0156369 1079.74917912 1082.48272135 1085.21626357 1087.9498058 1090.68334802 1093.41689025 </DataArray>
<DataArray Name="function variance" format="ascii" type="Float32">0.0 nan 0.0 nan 0.0 0.0 0.0 0.0 0.0 0.0 0.0 0.0 0.0 0.0 nan 0.0 0.0 0.0 0.0 0.0 0.0 0.0 0.0 0.0 0.0 0.0 0.0 0.0 0.0 0.0 0.0 0.0 0.0 0.0 0.0 0.0 0.0 0.0 0.0 0.0 0.0 0.0 75.0352416008 0.0 0.0 0.0 0.0 0.0 0.0 0.0 0.0 0.0 0.0 0.0 0.0 0.0 0.0 0.0 0.0 0.0 0.0 0.0 0.0 0.0 0.0 0.0 0.0 0.0 0.0 0.0 0.0 0.0 0.0 65.6442402885 0.0 0.0 0.0 0.0 0.0 590.046338568 0.0 0.0 0.0 0.0 0.0 0.0 0.0 0.0 0.0 0.0 0.0 0.0 0.0 0.0 0.0 0.0 0.0 0.0 0.0 0.0 0.0 0.0 0.0 0.0 0.0 0.0 0.0 0.0 0.0 0.0 612.177625137 0.0 0.0 0.0 0.0 612.441942627 0.0 0.0 0.0 0.0 0.0 0.0 0.0 0.0 0.0 0.0 0.0 0.0 0.0 0.0 0.0 0.0 0.0 0.0 0.0 0.0 0.0 0.0 0.0 0.0 0.0 0.0 0.0 0.0 0.0 0.0 593.565555653 0.0 0.0 0.0 0.0 0.0 141.081163795 0.0 0.0 0.0 0.0 0.0 0.0 0.0 0.0 0.0 0.0 0.0 0.0 0.0 0.0 0.0 0.0 0.0 0.0 0.0 0.0 0.0 0.0 0.0 0.0 0.0 0.0 0.0 0.0 0.0 0.0 578.310496374 0.0 0.0 0.0 0.0 85.001338784 0.0 0.0 0.0 0.0 0.0 0.0 0.0 0.0 0.0 0.0 0.0 0.0 0.0 0.0 0.0 0.0 0.0 0.0 0.0 0.0 0.0 0.0 0.0 0.0 0.0 0.0 0.0 0.0 0.0 0.0 35.5045907013 0.0 0.0 0.0 0.0 0.0 624.74725025 0.0 0.0 0.0 0.0 0.0 0.0 0.0 0.0 0.0 0.0 0.0 0.0 0.0 0.0 0.0 0.0 0.0 0.0 0.0 0.0 0.0 0.0 0.0 0.0 0.0 0.0 0.0 0.0 0.0 0.0 530.230416082 0.0 0.0 0.0 0.0 0.0 77.2289239738 0.0 0.0 0.0 0.0 0.0 0.0 0.0 0.0 0.0 0.0 0.0 0.0 0.0 0.0 0.0 0.0 0.0 0.0 0.0 0.0 0.0 0.0 0.0 0.0 0.0 0.0 0.0 0.0 0.0 0.0 298.373027015 0.0 0.0 0.0 0.0 409.65699627 0.0 0.0 0.0 0.0 0.0 0.0 0.0 0.0 0.0 0.0 0.0 0.0 0.0 0.0 0.0 0.0 0.0 0.0 0.0 0.0 0.0 0.0 0.0 0.0 0.0 0.0 0.0 0.0 0.0 0.0 529.064159621 0.0 0.0 0.0 0.0 0.0 536.917343743 0.0 0.0 0.0 0.0 0.0 0.0 0.0 0.0 0.0 0.0 0.0 0.0 0.0 0.0 0.0 0.0 0.0 0.0 0.0 0.0 0.0 0.0 0.0 0.0 0.0 0.0 0.0 0.0 0.0 0.0 370.617137104 547.255037254 609.34128425 624.134238643 623.065415039 619.593744021 624.145452432 624.972732355 623.938616751 621.871128018 619.703365897 617.630403122 616.1932889 614.171031019 613.06997286 611.977737531 611.055604674 610.425711862 609.907653213 609.238314854 609.036938866 608.6676951 608.452107584 608.13918391 608.078802275 607.816395495 607.816395495 607.577160543 607.442919537 607.442919537 607.442919537 607.442919537 607.442919537 607.442919537 607.312453011 </DataArray>
<DataArray Name="1 stddev of function" format="ascii" type="Float32">0.0 nan 0.0 nan 0.0 0.0 0.0 0.0 0.0 0.0 0.0 0.0 0.0 0.0 nan 0.0 0.0 0.0 0.0 0.0 0.0 0.0 0.0 0.0 0.0 0.0 0.0 0.0 0.0 0.0 0.0 0.0 0.0 0.0 0.0 0.0 0.0 0.0 0.0 0.0 0.0 0.0 8.66228847365 0.0 0.0 0.0 0.0 0.0 0.0 0.0 0.0 0.0 0.0 0.0 0.0 0.0 0.0 0.0 0.0 0.0 0.0 0.0 0.0 0.0 0.0 0.0 0.0 0.0 0.0 0.0 0.0 0.0 0.0 8.10211332237 0.0 0.0 0.0 0.0 0.0 24.2908694486 0.0 0.0 0.0 0.0 0.0 0.0 0.0 0.0 0.0 0.0 0.0 0.0 0.0 0.0 0.0 0.0 0.0 0.0 0.0 0.0 0.0 0.0 0.0 0.0 0.0 0.0 0.0 0.0 0.0 0.0 24.7422235286 0.0 0.0 0.0 0.0 24.7475643777 0.0 0.0 0.0 0.0 0.0 0.0 0.0 0.0 0.0 0.0 0.0 0.0 0.0 0.0 0.0 0.0 0.0 0.0 0.0 0.0 0.0 0.0 0.0 0.0 0.0 0.0 0.0 0.0 0.0 0.0 24.3632008499 0.0 0.0 0.0 0.0 0.0 11.8777592076 0.0 0.0 0.0 0.0 0.0 0.0 0.0 0.0 0.0 0.0 0.0 0.0 0.0 0.0 0.0 0.0 0.0 0.0 0.0 0.0 0.0 0.0 0.0 0.0 0.0 0.0 0.0 0.0 0.0 0.0 24.0480871666 0.0 0.0 0.0 0.0 9.21961706276 0.0 0.0 0.0 0.0 0.0 0.0 0.0 0.0 0.0 0.0 0.0 0.0 0.0 0.0 0.0 0.0 0.0 0.0 0.0 0.0 0.0 0.0 0.0 0.0 0.0 0.0 0.0 0.0 0.0 0.0 5.95857287455 0.0 0.0 0.0 0.0 0.0 24.9949444938 0.0 0.0 0.0 0.0 0.0 0.0 0.0 0.0 0.0 0.0 0.0 0.0 0.0 0.0 0.0 0.0 0.0 0.0 0.0 0.0 0.0 0.0 0.0 0.0 0.0 0.0 0.0 0.0 0.0 0.0 23.0267326402 0.0 0.0 0.0 0.0 0.0 8.7879988606 0.0 0.0 0.0 0.0 0.0 0.0 0.0 0.0 0.0 0.0 0.0 0.0 0.0 0.0 0.0 0.0 0.0 0.0 0.0 0.0 0.0 0.0 0.0 0.0 0.0 0.0 0.0 0.0 0.0 0.0 17.27347756 0.0 0.0 0.0 0.0 20.2399850857 0.0 0.0 0.0 0.0 0.0 0.0 0.0 0.0 0.0 0.0 0.0 0.0 0.0 0.0 0.0 0.0 0.0 0.0 0.0 0.0 0.0 0.0 0.0 0.0 0.0 0.0 0.0 0.0 0.0 0.0 23.0013947321 0.0 0.0 0.0 0.0 0.0 23.1714769435 0.0 0.0 0.0 0.0 0.0 0.0 0.0 0.0 0.0 0.0 0.0 0.0 0.0 0.0 0.0 0.0 0.0 0.0 0.0 0.0 0.0 0.0 0.0 0.0 0.0 0.0 0.0 0.0 0.0 0.0 19.2514190932 23.3934827944 24.6848391579 24.9826787724 24.9612783134 24.8916400428 24.9829032026 24.9994546411 24.9787633151 24.937344045 24.8938419272 24.8521709941 24.8232409024 24.7824742715 24.7602498546 24.7381837961 24.7195389252 24.7067948521 24.6963084936 24.6827533888 24.6786737664 24.6711916028 24.6668220001 24.6604781768 24.6592538872 24.6539326578 24.6539326578 24.6490803184 24.6463571251 24.6463571251 24.6463571251 24.6463571251 24.6463571251 24.6463571251 24.643710212 </DataArray>