<?xml version="1.0" ?>
<VTKFile byte_order="LittleEndian" type="UnstructuredGrid" version="0.1">
<UnstructuredGrid>
<Piece NumberOfCells="0" NumberOfPoints="100">
<Points>
<DataArray NumberOfComponents="3" format="ascii" type="Float32">38.8596401049 38.8596401049 38.8596401049 66.7579913199 66.7579913199 66.7579913199 79.4140757205 79.4140757205 79.4140757205 78.0192765428 78.0192765428 78.0192765428 73.5530091128 73.5530091128 73.5530091128 68.8516747212 68.8516747212 68.8516747212 64.084069278 64.084069278 64.084069278 59.2708384778 59.2708384778 59.2708384778 54.0053171664 54.0053171664 54.0053171664 49.6621230529 49.6621230529 49.6621230529 47.5607631593 47.5607631593 47.5607631593 50.6892196551 50.6892196551 50.6892196551 54.1460126306 54.1460126306 54.1460126306 57.2091155185 57.2091155185 57.2091155185 59.1810850987 59.1810850987 59.1810850987 62.6758311429 62.6758311429 62.6758311429 67.4423374281 67.4423374281 67.4423374281 69.5501421856 69.5501421856 69.5501421856 71.3925647931 71.3925647931 71.3925647931 71.8688226169 71.8688226169 71.8688226169 69.2057719323 69.2057719323 69.2057719323 65.2129176876 65.2129176876 65.2129176876 63.4605508505 63.4605508505 63.4605508505 61.551384884 61.551384884 61.551384884 60.9619488452 60.9619488452 60.9619488452 61.2027927587 61.2027927587 61.2027927587 61.9620986596 61.9620986596 61.9620986596 63.8827436948 63.8827436948 63.8827436948 68.163108551 68.163108551 68.163108551 72.5437986318 72.5437986318 72.5437986318 73.5256589125 73.5256589125 73.5256589125 72.3986537069 72.3986537069 72.3986537069 69.6041996866 69.6041996866 69.6041996866 66.0002789148 66.0002789148 66.0002789148 63.4770998043 63.4770998043 63.4770998043 62.9629083298 62.9629083298 62.9629083298 64.6817269091 64.6817269091 64.6817269091 67.1343436774 67.1343436774 67.1343436774 68.3916545793 68.3916545793 68.3916545793 70.2257072756 70.2257072756 70.2257072756 69.484376237 69.484376237 69.484376237 67.5850636798 67.5850636798 67.5850636798 65.016883808 65.016883808 65.016883808 63.9873623272 63.9873623272 63.9873623272 64.4057477286 64.4057477286 64.4057477286 65.743390557 65.743390557 65.743390557 69.1465044939 69.1465044939 69.1465044939 72.7842981266 72.7842981266 72.7842981266 74.1127513456 74.1127513456 74.1127513456 71.7728528276 71.7728528276 71.7728528276 69.9760729481 69.9760729481 69.9760729481 67.6921501645 67.6921501645 67.6921501645 65.5333194006 65.5333194006 65.5333194006 64.6292768044 64.6292768044 64.6292768044 66.1202342408 66.1202342408 66.1202342408 69.243771159 69.243771159 69.243771159 71.604258629 71.604258629 71.604258629 73.1738998593 73.1738998593 73.1738998593 72.6345247797 72.6345247797 72.6345247797 71.857881234 71.857881234 71.857881234 68.768292426 68.768292426 68.768292426 65.6215780368 65.6215780368 65.6215780368 64.7211760252 64.7211760252 64.7211760252 65.523762743 65.523762743 65.523762743 66.8953613058 66.8953613058 66.8953613058 68.678515163 68.678515163 68.678515163 71.4007101616 71.4007101616 71.4007101616 73.0001010025 73.0001010025 73.0001010025 71.2380178972 71.2380178972 71.2380178972 69.708047097 69.708047097 69.708047097 67.0324823187 67.0324823187 67.0324823187 64.6771539861 64.6771539861 64.6771539861 64.7918926521 64.7918926521 64.7918926521 67.0885719443 67.0885719443 67.0885719443 69.1710148842 69.1710148842 69.1710148842 70.7002776049 70.7002776049 70.7002776049 72.6488505164 72.6488505164 72.6488505164 73.0558735649 73.0558735649 73.0558735649 71.6790156072 71.6790156072 71.6790156072 69.1661714574 69.1661714574 69.1661714574 66.2288675168 66.2288675168 66.2288675168 64.9939027128 64.9939027128 64.9939027128 65.6846628407 65.6846628407 65.6846628407 67.3783445544 67.3783445544 67.3783445544 69.5302164867 69.5302164867 69.5302164867 71.6863585871 71.6863585871 71.6863585871 74.4479930657 74.4479930657 74.4479930657 74.0782945669 74.0782945669 74.0782945669 71.7618556204 71.7618556204 71.7618556204 69.0271212127 69.0271212127 69.0271212127 67.4649813056 67.4649813056 67.4649813056 66.6005812094 66.6005812094 66.6005812094 66.9371925639 66.9371925639 66.9371925639 69.3335597505 69.3335597505 69.3335597505 66.9940261172 66.9940261172 66.9940261172 62.5337149814 62.5337149814 62.5337149814 59.3976212015 59.3976212015 59.3976212015 58.2238579575 58.2238579575 58.2238579575 57.6725525802 57.6725525802 57.6725525802 57.5166502115 57.5166502115 57.5166502115 </DataArray>
</Points>
<PointData>
<DataArray Name="Points" format="ascii" type="Float32">38.8596401049 38.8596401049 38.8596401049 66.7579913199 66.7579913199 66.7579913199 79.4140757205 79.4140757205 79.4140757205 78.0192765428 78.0192765428 78.0192765428 73.5530091128 73.5530091128 73.5530091128 68.8516747212 68.8516747212 68.8516747212 64.084069278 64.084069278 64.084069278 59.2708384778 59.2708384778 59.2708384778 54.0053171664 54.0053171664 54.0053171664 49.6621230529 49.6621230529 49.6621230529 47.5607631593 47.5607631593 47.5607631593 50.6892196551 50.6892196551 50.6892196551 54.1460126306 54.1460126306 54.1460126306 57.2091155185 57.2091155185 57.2091155185 59.1810850987 59.1810850987 59.1810850987 62.6758311429 62.6758311429 62.6758311429 67.4423374281 67.4423374281 67.4423374281 69.5501421856 69.5501421856 69.5501421856 71.3925647931 71.3925647931 71.3925647931 71.8688226169 71.8688226169 71.8688226169 69.2057719323 69.2057719323 69.2057719323 65.2129176876 65.2129176876 65.2129176876 63.4605508505 63.4605508505 63.4605508505 61.551384884 61.551384884 61.551384884 60.9619488452 60.9619488452 60.9619488452 61.2027927587 61.2027927587 61.2027927587 61.9620986596 61.9620986596 61.9620986596 63.8827436948 63.8827436948 63.8827436948 68.163108551 68.163108551 68.163108551 72.5437986318 72.5437986318 72.5437986318 73.5256589125 73.5256589125 73.5256589125 72.3986537069 72.3986537069 72.3986537069 69.6041996866 69.6041996866 69.6041996866 66.0002789148 66.0002789148 66.0002789148 63.4770998043 63.4770998043 63.4770998043 62.9629083298 62.9629083298 62.9629083298 64.6817269091 64.6817269091 64.6817269091 67.1343436774 67.1343436774 67.1343436774 68.3916545793 68.3916545793 68.3916545793 70.2257072756 70.2257072756 70.2257072756 69.484376237 69.484376237 69.484376237 67.5850636798 67.5850636798 67.5850636798 65.016883808 65.016883808 65.016883808 63.9873623272 63.9873623272 63.9873623272 64.4057477286 64.4057477286 64.4057477286 65.743390557 65.743390557 65.743390557 69.1465044939 69.1465044939 69.1465044939 72.7842981266 72.7842981266 72.7842981266 74.1127513456 74.1127513456 74.1127513456 71.7728528276 71.7728528276 71.7728528276 69.9760729481 69.9760729481 69.9760729481 67.6921501645 67.6921501645 67.6921501645 65.5333194006 65.5333194006 65.5333194006 64.6292768044 64.6292768044 64.6292768044 66.1202342408 66.1202342408 66.1202342408 69.243771159 69.243771159 69.243771159 71.604258629 71.604258629 71.604258629 73.1738998593 73.1738998593 73.1738998593 72.6345247797 72.6345247797 72.6345247797 71.857881234 71.857881234 71.857881234 68.768292426 68.768292426 68.768292426 65.6215780368 65.6215780368 65.6215780368 64.7211760252 64.7211760252 64.7211760252 65.523762743 65.523762743 65.523762743 66.8953613058 66.8953613058 66.8953613058 68.678515163 68.678515163 68.678515163 71.4007101616 71.4007101616 71.4007101616 73.0001010025 73.0001010025 73.0001010025 71.2380178972 71.2380178972 71.2380178972 69.708047097 69.708047097 69.708047097 67.0324823187 67.0324823187 67.0324823187 64.6771539861 64.6771539861 64.6771539861 64.7918926521 64.7918926521 64.7918926521 67.0885719443 67.0885719443 67.0885719443 69.1710148842 69.1710148842 69.1710148842 70.7002776049 70.7002776049 70.7002776049 72.6488505164 72.6488505164 72.6488505164 73.0558735649 73.0558735649 73.0558735649 71.6790156072 71.6790156072 71.6790156072 69.1661714574 69.1661714574 69.1661714574 66.2288675168 66.2288675168 66.2288675168 64.9939027128 64.9939027128 64.9939027128 65.6846628407 65.6846628407 65.6846628407 67.3783445544 67.3783445544 67.3783445544 69.5302164867 69.5302164867 69.5302164867 71.6863585871 71.6863585871 71.6863585871 74.4479930657 74.4479930657 74.4479930657 74.0782945669 74.0782945669 74.0782945669 71.7618556204 71.7618556204 71.7618556204 69.0271212127 69.0271212127 69.0271212127 67.4649813056 67.4649813056 67.4649813056 66.6005812094 66.6005812094 66.6005812094 66.9371925639 66.9371925639 66.9371925639 69.3335597505 69.3335597505 69.3335597505 66.9940261172 66.9940261172 66.9940261172 62.5337149814 62.5337149814 62.5337149814 59.3976212015 59.3976212015 59.3976212015 58.2238579575 58.2238579575 58.2238579575 57.6725525802 57.6725525802 57.6725525802 57.5166502115 57.5166502115 57.5166502115 </DataArray>
<DataArray Name="1 stddev of GFP" format="ascii" type="Float32">38.8596401049 66.7579913199 79.4140757205 78.0192765428 73.5530091128 68.8516747212 64.084069278 59.2708384778 54.0053171664 49.6621230529 47.5607631593 50.6892196551 54.1460126306 57.2091155185 59.1810850987 62.6758311429 67.4423374281 69.5501421856 71.3925647931 71.8688226169 69.2057719323 65.2129176876 63.4605508505 61.551384884 60.9619488452 61.2027927587 61.9620986596 63.8827436948 68.163108551 72.5437986318 73.5256589125 72.3986537069 69.6041996866 66.0002789148 63.4770998043 62.9629083298 64.6817269091 67.1343436774 68.3916545793 70.2257072756 69.484376237 67.5850636798 65.016883808 63.9873623272 64.4057477286 65.743390557 69.1465044939 72.7842981266 74.1127513456 71.7728528276 69.9760729481 67.6921501645 65.5333194006 64.6292768044 66.1202342408 69.243771159 71.604258629 73.1738998593 72.6345247797 71.857881234 68.768292426 65.6215780368 64.7211760252 65.523762743 66.8953613058 68.678515163 71.4007101616 73.0001010025 71.2380178972 69.708047097 67.0324823187 64.6771539861 64.7918926521 67.0885719443 69.1710148842 70.7002776049 72.6488505164 73.0558735649 71.6790156072 69.1661714574 66.2288675168 64.9939027128 65.6846628407 67.3783445544 69.5302164867 71.6863585871 74.4479930657 74.0782945669 71.7618556204 69.0271212127 67.4649813056 66.6005812094 66.9371925639 69.3335597505 66.9940261172 62.5337149814 59.3976212015 58.2238579575 57.6725525802 57.5166502115 </DataArray>
<DataArray Name="GFP variance" format="ascii" type="Float32">1510.07162908 4456.62940507 6306.59542254 6087.00751226 5410.04514954 4740.55311191 4106.76793523 3513.03229386 2916.57428224 2466.32646612 2262.0261923 2569.39698924 2931.7906838 3272.88289841 3502.40083346 3928.25980946 4548.46887777 4837.22227804 5096.89830774 5165.12766434 4789.43886875 4252.72463333 4027.24151424 3788.57298113 3716.359207 3745.78184147 3839.3016703 4081.00494198 4646.20936734 5262.60271993 5406.02251852 5241.56505857 4844.74461401 4356.03681684 4029.34219956 3964.32782534 4183.72579594 4507.02010099 4677.4184161 4931.64996235 4828.07854104 4567.7408326 4227.1951801 4094.38253759 4148.10034048 4322.19340193 4781.23908372 5297.55405378 5492.69991201 5151.34240301 4896.65078523 4582.2271939 4294.61595166 4176.94342026 4371.88537606 4794.69984432 5127.1698538 5354.41962061 5275.77418998 5163.55509544 4729.07804319 4306.19150403 4188.83062608 4293.363484 4474.98936423 4716.738445 5098.06141158 5329.01474638 5074.85519392 4859.21183007 4493.3536858 4183.13424774 4197.98935345 4500.87648552 4784.62930011 4998.52925341 5277.85548136 5337.16066233 5137.88127841 4783.95927407 4386.26289255 4224.20738984 4314.47493249 4539.84131489 4834.45100469 5138.93400748 5542.50367151 5487.59372594 5149.76392209 4764.74346291 4551.52370256 4435.63741744 4480.58774833 4807.14250768 4488.19953539 3910.46550937 3528.07740439 3390.01763546 3326.12332111 3308.16505155 </DataArray>
<DataArray Name="GFP median" format="ascii" type="Float32">52.0 167.0 202.0 194.0 176.0 156.0 135.0 114.0 94.0 79.0 71.0 70.0 70.0 69.0 72.0 78.0 86.0 91.0 93.0 92.0 95.0 97.0 93.0 88.0 83.0 80.0 76.0 76.0 77.0 81.0 91.0 90.0 87.0 85.0 82.0 78.0 77.0 74.0 76.0 81.0 84.0 80.0 77.0 75.0 73.0 73.0 74.0 73.0 78.0 87.0 84.0 81.0 76.0 72.0 70.0 70.0 69.0 68.0 80.0 80.0 77.0 75.0 73.0 70.0 66.0 66.0 63.0 68.0 79.0 74.0 70.0 67.0 66.0 64.0 63.0 62.0 62.0 75.0 73.0 69.0 66.0 64.0 62.0 59.0 60.0 55.0 66.0 73.0 68.0 64.0 60.0 58.0 57.0 54.0 0.0 0.0 0.0 0.0 0.0 0.0 </DataArray>
<DataArray Name="GFP mean" format="ascii" type="Float32">59.0776601831 179.665589176 214.576383257 207.375224586 190.025125945 169.20328145 147.719481658 125.919308176 105.912201823 89.9713804714 82.0313823945 83.1095796003 83.9695582657 84.4082119538 86.790792486 93.0917903379 100.063438486 105.71613351 108.153919 106.968100248 108.608660284 109.256223901 104.438021716 98.5402854007 93.1094784638 89.6974889771 87.9761148999 88.0484166036 90.7140186916 94.6025464451 104.26847951 102.763736264 98.1690732725 94.1424137822 90.9510587486 87.3037675868 86.3013308282 85.2053314344 86.3909473945 91.5617599402 94.3596715445 89.9371579483 87.0866687777 84.0858576297 82.3218975809 83.2464221965 85.5096090126 84.9911453262 87.85482212 96.243852459 91.5980448169 87.7278913728 82.4865387664 78.7399489669 79.0841959972 80.6290194079 80.7569088253 79.0750695637 89.5901448149 89.0251762979 85.1450976649 80.401284918 79.057642116 76.0896314803 74.3706866993 75.9660223354 74.1126667069 77.349215398 87.719092176 81.163189246 77.3564731509 73.77900082 72.4673460965 72.3397112705 72.9014843114 73.1883697813 72.0227737226 83.6506997832 80.7387120892 76.0393078266 71.2388820697 69.4525048078 68.159894048 66.9651434906 69.5962896128 66.789406137 75.430602402 80.0728168176 75.838728417 71.0563175066 67.4139149468 66.053586072 66.2545162843 65.3089805447 46.825919155 37.0060199864 31.8276552414 30.1175529135 29.3496832925 29.1363794356 </DataArray>
<DataArray Name="GFP +1 stddev" format="ascii" type="Float32">97.9373002879 246.423580496 293.990458978 285.394501129 263.578135057 238.054956171 211.803550936 185.190146654 159.91751899 139.633503524 129.592145554 133.798799255 138.115570896 141.617327472 145.971877585 155.767621481 167.505775914 175.266275696 179.546483793 178.836922864 177.814432216 174.469141589 167.898572566 160.091670285 154.071427309 150.900281736 149.938213559 151.931160298 158.877127243 167.146345077 177.794138422 175.162389971 167.773272959 160.142692697 154.428158553 150.266675917 150.983057737 152.339675112 154.782601974 161.787467216 163.844047781 157.522221628 152.103552586 148.073219957 146.727645309 148.989812753 154.656113506 157.775443453 161.967573466 168.016705287 161.574117765 155.420041537 148.019858167 143.369225771 145.204430238 149.872790567 152.361167454 152.248969423 162.224669595 160.883057532 153.913390091 146.022862955 143.778818141 141.613394223 141.266048005 144.644537498 145.513376868 150.349316401 158.957110073 150.871236343 144.38895547 138.456154806 137.259238749 139.428283215 142.072499196 143.888647386 144.671624239 156.706573348 152.417727696 145.205479284 137.467749586 134.446407521 133.844556889 134.343488045 139.1265061 138.475764724 149.878595468 154.151111384 147.600584037 140.083438719 134.878896252 132.654167281 133.191708848 134.642540295 113.819945272 99.5397349677 91.2252764429 88.341410871 87.0222358726 86.6530296471 </DataArray>
<DataArray Name="GFP -1 stddev" format="ascii" type="Float32">20.2180200782 112.907597856 135.162307537 129.355948043 116.472116832 100.351606729 83.6354123797 66.6484696983 51.9068846571 40.3092574185 34.4706192351 32.4203599452 29.823545635 27.1990964353 27.6097073872 30.4159591949 32.6211010577 36.1659913244 36.7613542068 35.0992776306 39.4028883518 44.0433062134 40.9774708655 36.9889005167 32.1475296186 28.4946962184 26.0140162403 24.1656729088 22.5509101406 22.0587478133 30.7428205972 30.3650825569 28.5648735858 28.1421348674 27.4739589443 24.340859257 21.6196039191 18.070987757 17.9992928152 21.3360526646 24.8752953076 22.3520942685 22.0697849697 20.0984953025 17.9161498523 17.5030316395 16.3631045187 12.2068471996 13.7420707745 24.4709996314 21.6219718688 20.0357412083 16.9532193658 14.1106721625 12.9639617565 11.3852482489 9.1526501963 5.9011697044 16.9556200351 17.1672950639 16.376805239 14.7797068812 14.3364660908 10.5658687373 7.47532539354 7.28750717238 2.71195654532 4.34911439549 16.4810742788 11.455142149 10.3239908322 9.10184683397 7.67545344432 5.25113932621 3.73046942721 2.48809217644 -0.626076793801 10.5948262183 9.05969648204 6.87313636926 5.01001455291 4.45860209502 2.47523120733 -0.413201063827 0.0660731261022 -4.89695245011 0.982609336366 5.99452225073 4.07687279654 2.02919629391 -0.051066358725 -0.546995137412 -0.682676279592 -4.02457920575 -20.1681069622 -25.527694995 -27.56996596 -28.106305044 -28.3228692877 -28.3802707758 </DataArray>
<DataArray Name="time" format="ascii" type="Float32">0.0 10.6476844288 21.2953688575 31.9430532863 42.590737715 53.2384221438 63.8861065726 74.5337910013 85.1814754301 95.8291598588 106.476844288 117.124528716 127.772213145 138.419897574 149.067582003 159.715266431 170.36295086 181.010635289 191.658319718 202.306004146 212.953688575 223.601373004 234.249057433 244.896741861 255.54442629 266.192110719 276.839795148 287.487479577 298.135164005 308.782848434 319.430532863 330.078217292 340.72590172 351.373586149 362.021270578 372.668955007 383.316639435 393.964323864 404.612008293 415.259692722 425.90737715 436.555061579 447.202746008 457.850430437 468.498114865 479.145799294 489.793483723 500.441168152 511.088852581 521.736537009 532.384221438 543.031905867 553.679590296 564.327274724 574.974959153 585.622643582 596.270328011 606.918012439 617.565696868 628.213381297 638.861065726 649.508750154 660.156434583 670.804119012 681.451803441 692.099487869 702.747172298 713.394856727 724.042541156 734.690225584 745.337910013 755.985594442 766.633278871 777.2809633 787.928647728 798.576332157 809.224016586 819.871701015 830.519385443 841.167069872 851.814754301 862.46243873 873.110123158 883.757807587 894.405492016 905.053176445 915.700860873 926.348545302 936.996229731 947.64391416 958.291598588 968.939283017 979.586967446 990.234651875 1000.8823363 1011.53002073 1022.17770516 1032.82538959 1043.47307402 1054.12075845 </DataArray>
<DataArray Name="GFP coefficient of variation" format="ascii" type="Float32">0.657772159297 0.371568042751 0.370097000028 0.376222746466 0.387069913766 0.406916899786 0.433822733189 0.470704924736 0.509906471932 0.551976893015 0.579787415146 0.609908266879 0.644829075548 0.677767176846 0.681882068404 0.67326915634 0.67399580155 0.657895250956 0.660101505829 0.671871543484 0.637203071572 0.59688057448 0.607638385023 0.624631688793 0.654734081331 0.682324482621 0.70430592133 0.72554108477 0.75140655804 0.766827124192 0.705157102686 0.70451558438 0.709023701318 0.701068479798 0.697925902982 0.721193484201 0.749487015882 0.787912476217 0.791653022012 0.766976380985 0.736377894281 0.751469862085 0.746576769103 0.76097650819 0.782364712442 0.789744337622 0.808640166788 0.856375071158 0.843582054543 0.745739608233 0.763947233677 0.771614923205 0.794472896798 0.820793988977 0.836073926112 0.858794658145 0.886664183542 0.925372563857 0.810742352631 0.80716359374 0.807660033424 0.816175737785 0.818658061294 0.861139178469 0.899485594052 0.904068859362 0.963407651272 0.943772999207 0.812115311844 0.858862838493 0.866540052672 0.876633639209 0.894083972192 0.927410004353 0.94882862177 0.966004268385 1.00869276149 0.873344440086 0.887789930659 0.909610745209 0.929673032376 0.935803581061 0.963684931705 1.00617039018 0.999050622864 1.07331929917 0.986973333036 0.925136613286 0.946242864541 0.971442422502 1.00075750472 1.00828108162 1.0103038452 1.06162367215 1.43070392052 1.68982546635 1.86622673744 1.93322007683 1.96501447751 1.97404932684 </DataArray>
</PointData>
<CellData/>
<Cells>
<DataArray Name="connectivity" format="ascii" type="Int32">0</DataArray>
<DataArray Name="offsets" format="ascii" type="Int32">0</DataArray>
<DataArray Name="types" format="ascii" type="UInt8">11</DataArray>
</Cells>
</Piece>
</UnstructuredGrid>
</VTKFile>
