<?xml version="1.0" ?>
<VTKFile byte_order="LittleEndian" type="UnstructuredGrid" version="0.1">
<UnstructuredGrid>
<Piece NumberOfCells="0" NumberOfPoints="100">
<Points>
<DataArray NumberOfComponents="3" format="ascii" type="Float32">39.2432838754 39.2432838754 39.2432838754 68.1927961678 68.1927961678 68.1927961678 78.3479130115 78.3479130115 78.3479130115 76.1194197838 76.1194197838 76.1194197838 72.060626917 72.060626917 72.060626917 67.4516766501 67.4516766501 67.4516766501 62.779586839 62.779586839 62.779586839 57.5792765725 57.5792765725 57.5792765725 52.9419901144 52.9419901144 52.9419901144 49.3133801196 49.3133801196 49.3133801196 49.0771137703 49.0771137703 49.0771137703 52.6168366052 52.6168366052 52.6168366052 54.7092598443 54.7092598443 54.7092598443 56.2471246394 56.2471246394 56.2471246394 59.2709286067 59.2709286067 59.2709286067 61.8333035251 61.8333035251 61.8333035251 66.630589954 66.630589954 66.630589954 69.7182646518 69.7182646518 69.7182646518 70.4242013629 70.4242013629 70.4242013629 71.600156298 71.600156298 71.600156298 71.6915343543 71.6915343543 71.6915343543 67.4473186665 67.4473186665 67.4473186665 63.4743460029 63.4743460029 63.4743460029 61.3592479801 61.3592479801 61.3592479801 59.2843972661 59.2843972661 59.2843972661 59.1242829853 59.1242829853 59.1242829853 60.1615712069 60.1615712069 60.1615712069 60.9876225963 60.9876225963 60.9876225963 66.7795859542 66.7795859542 66.7795859542 73.5953463635 73.5953463635 73.5953463635 75.5363287843 75.5363287843 75.5363287843 73.5677205573 73.5677205573 73.5677205573 73.2336683073 73.2336683073 73.2336683073 69.8725613618 69.8725613618 69.8725613618 70.1551745385 70.1551745385 70.1551745385 70.3104384989 70.3104384989 70.3104384989 70.9210437887 70.9210437887 70.9210437887 70.4966516077 70.4966516077 70.4966516077 71.0156895821 71.0156895821 71.0156895821 71.4673035512 71.4673035512 71.4673035512 71.1998504401 71.1998504401 71.1998504401 69.0241507745 69.0241507745 69.0241507745 66.2362818659 66.2362818659 66.2362818659 65.2367596854 65.2367596854 65.2367596854 65.9398137431 65.9398137431 65.9398137431 69.2138596505 69.2138596505 69.2138596505 71.1700170501 71.1700170501 71.1700170501 70.319052803 70.319052803 70.319052803 72.8900020156 72.8900020156 72.8900020156 69.9396607397 69.9396607397 69.9396607397 68.0838858502 68.0838858502 68.0838858502 67.6256807753 67.6256807753 67.6256807753 65.0069191851 65.0069191851 65.0069191851 63.4125000168 63.4125000168 63.4125000168 63.9345620287 63.9345620287 63.9345620287 65.4561009328 65.4561009328 65.4561009328 69.1057672235 69.1057672235 69.1057672235 72.5872666584 72.5872666584 72.5872666584 76.0902597077 76.0902597077 76.0902597077 75.8609240853 75.8609240853 75.8609240853 74.7795601465 74.7795601465 74.7795601465 72.1554721024 72.1554721024 72.1554721024 69.4932513868 69.4932513868 69.4932513868 68.8894683525 68.8894683525 68.8894683525 70.9832103864 70.9832103864 70.9832103864 71.6940374549 71.6940374549 71.6940374549 72.650854646 72.650854646 72.650854646 74.7803474463 74.7803474463 74.7803474463 76.1183487575 76.1183487575 76.1183487575 73.5683579662 73.5683579662 73.5683579662 71.2072324114 71.2072324114 71.2072324114 69.5323651749 69.5323651749 69.5323651749 67.757407085 67.757407085 67.757407085 67.3098165315 67.3098165315 67.3098165315 68.6600739161 68.6600739161 68.6600739161 71.9437649301 71.9437649301 71.9437649301 75.0611680918 75.0611680918 75.0611680918 76.5969765613 76.5969765613 76.5969765613 75.9524335014 75.9524335014 75.9524335014 72.1548956373 72.1548956373 72.1548956373 67.6610076271 67.6610076271 67.6610076271 64.7272969948 64.7272969948 64.7272969948 62.6390933782 62.6390933782 62.6390933782 62.3072899369 62.3072899369 62.3072899369 66.4207350371 66.4207350371 66.4207350371 71.0370686239 71.0370686239 71.0370686239 74.381180943 74.381180943 74.381180943 76.6076025881 76.6076025881 76.6076025881 74.9835208566 74.9835208566 74.9835208566 72.2913638342 72.2913638342 72.2913638342 69.9843859957 69.9843859957 69.9843859957 69.7879045261 69.7879045261 69.7879045261 71.0184933948 71.0184933948 71.0184933948 73.1875598561 73.1875598561 73.1875598561 73.8049455924 73.8049455924 73.8049455924 74.1986576687 74.1986576687 74.1986576687 72.3506117612 72.3506117612 72.3506117612 70.86536096 70.86536096 70.86536096 70.1585335783 70.1585335783 70.1585335783 70.0344668604 70.0344668604 70.0344668604 </DataArray>
</Points>
<PointData>
<DataArray Name="Points" format="ascii" type="Float32">39.2432838754 39.2432838754 39.2432838754 68.1927961678 68.1927961678 68.1927961678 78.3479130115 78.3479130115 78.3479130115 76.1194197838 76.1194197838 76.1194197838 72.060626917 72.060626917 72.060626917 67.4516766501 67.4516766501 67.4516766501 62.779586839 62.779586839 62.779586839 57.5792765725 57.5792765725 57.5792765725 52.9419901144 52.9419901144 52.9419901144 49.3133801196 49.3133801196 49.3133801196 49.0771137703 49.0771137703 49.0771137703 52.6168366052 52.6168366052 52.6168366052 54.7092598443 54.7092598443 54.7092598443 56.2471246394 56.2471246394 56.2471246394 59.2709286067 59.2709286067 59.2709286067 61.8333035251 61.8333035251 61.8333035251 66.630589954 66.630589954 66.630589954 69.7182646518 69.7182646518 69.7182646518 70.4242013629 70.4242013629 70.4242013629 71.600156298 71.600156298 71.600156298 71.6915343543 71.6915343543 71.6915343543 67.4473186665 67.4473186665 67.4473186665 63.4743460029 63.4743460029 63.4743460029 61.3592479801 61.3592479801 61.3592479801 59.2843972661 59.2843972661 59.2843972661 59.1242829853 59.1242829853 59.1242829853 60.1615712069 60.1615712069 60.1615712069 60.9876225963 60.9876225963 60.9876225963 66.7795859542 66.7795859542 66.7795859542 73.5953463635 73.5953463635 73.5953463635 75.5363287843 75.5363287843 75.5363287843 73.5677205573 73.5677205573 73.5677205573 73.2336683073 73.2336683073 73.2336683073 69.8725613618 69.8725613618 69.8725613618 70.1551745385 70.1551745385 70.1551745385 70.3104384989 70.3104384989 70.3104384989 70.9210437887 70.9210437887 70.9210437887 70.4966516077 70.4966516077 70.4966516077 71.0156895821 71.0156895821 71.0156895821 71.4673035512 71.4673035512 71.4673035512 71.1998504401 71.1998504401 71.1998504401 69.0241507745 69.0241507745 69.0241507745 66.2362818659 66.2362818659 66.2362818659 65.2367596854 65.2367596854 65.2367596854 65.9398137431 65.9398137431 65.9398137431 69.2138596505 69.2138596505 69.2138596505 71.1700170501 71.1700170501 71.1700170501 70.319052803 70.319052803 70.319052803 72.8900020156 72.8900020156 72.8900020156 69.9396607397 69.9396607397 69.9396607397 68.0838858502 68.0838858502 68.0838858502 67.6256807753 67.6256807753 67.6256807753 65.0069191851 65.0069191851 65.0069191851 63.4125000168 63.4125000168 63.4125000168 63.9345620287 63.9345620287 63.9345620287 65.4561009328 65.4561009328 65.4561009328 69.1057672235 69.1057672235 69.1057672235 72.5872666584 72.5872666584 72.5872666584 76.0902597077 76.0902597077 76.0902597077 75.8609240853 75.8609240853 75.8609240853 74.7795601465 74.7795601465 74.7795601465 72.1554721024 72.1554721024 72.1554721024 69.4932513868 69.4932513868 69.4932513868 68.8894683525 68.8894683525 68.8894683525 70.9832103864 70.9832103864 70.9832103864 71.6940374549 71.6940374549 71.6940374549 72.650854646 72.650854646 72.650854646 74.7803474463 74.7803474463 74.7803474463 76.1183487575 76.1183487575 76.1183487575 73.5683579662 73.5683579662 73.5683579662 71.2072324114 71.2072324114 71.2072324114 69.5323651749 69.5323651749 69.5323651749 67.757407085 67.757407085 67.757407085 67.3098165315 67.3098165315 67.3098165315 68.6600739161 68.6600739161 68.6600739161 71.9437649301 71.9437649301 71.9437649301 75.0611680918 75.0611680918 75.0611680918 76.5969765613 76.5969765613 76.5969765613 75.9524335014 75.9524335014 75.9524335014 72.1548956373 72.1548956373 72.1548956373 67.6610076271 67.6610076271 67.6610076271 64.7272969948 64.7272969948 64.7272969948 62.6390933782 62.6390933782 62.6390933782 62.3072899369 62.3072899369 62.3072899369 66.4207350371 66.4207350371 66.4207350371 71.0370686239 71.0370686239 71.0370686239 74.381180943 74.381180943 74.381180943 76.6076025881 76.6076025881 76.6076025881 74.9835208566 74.9835208566 74.9835208566 72.2913638342 72.2913638342 72.2913638342 69.9843859957 69.9843859957 69.9843859957 69.7879045261 69.7879045261 69.7879045261 71.0184933948 71.0184933948 71.0184933948 73.1875598561 73.1875598561 73.1875598561 73.8049455924 73.8049455924 73.8049455924 74.1986576687 74.1986576687 74.1986576687 72.3506117612 72.3506117612 72.3506117612 70.86536096 70.86536096 70.86536096 70.1585335783 70.1585335783 70.1585335783 70.0344668604 70.0344668604 70.0344668604 </DataArray>
<DataArray Name="1 stddev of GFP" format="ascii" type="Float32">39.2432838754 68.1927961678 78.3479130115 76.1194197838 72.060626917 67.4516766501 62.779586839 57.5792765725 52.9419901144 49.3133801196 49.0771137703 52.6168366052 54.7092598443 56.2471246394 59.2709286067 61.8333035251 66.630589954 69.7182646518 70.4242013629 71.600156298 71.6915343543 67.4473186665 63.4743460029 61.3592479801 59.2843972661 59.1242829853 60.1615712069 60.9876225963 66.7795859542 73.5953463635 75.5363287843 73.5677205573 73.2336683073 69.8725613618 70.1551745385 70.3104384989 70.9210437887 70.4966516077 71.0156895821 71.4673035512 71.1998504401 69.0241507745 66.2362818659 65.2367596854 65.9398137431 69.2138596505 71.1700170501 70.319052803 72.8900020156 69.9396607397 68.0838858502 67.6256807753 65.0069191851 63.4125000168 63.9345620287 65.4561009328 69.1057672235 72.5872666584 76.0902597077 75.8609240853 74.7795601465 72.1554721024 69.4932513868 68.8894683525 70.9832103864 71.6940374549 72.650854646 74.7803474463 76.1183487575 73.5683579662 71.2072324114 69.5323651749 67.757407085 67.3098165315 68.6600739161 71.9437649301 75.0611680918 76.5969765613 75.9524335014 72.1548956373 67.6610076271 64.7272969948 62.6390933782 62.3072899369 66.4207350371 71.0370686239 74.381180943 76.6076025881 74.9835208566 72.2913638342 69.9843859957 69.7879045261 71.0184933948 73.1875598561 73.8049455924 74.1986576687 72.3506117612 70.86536096 70.1585335783 70.0344668604 </DataArray>
<DataArray Name="GFP variance" format="ascii" type="Float32">1540.03532932 4650.25744919 6138.39547326 5794.16606822 5192.73395167 4549.72868291 3941.27652368 3315.37309061 2802.85431727 2431.80945882 2408.56309603 2768.53149434 2993.10311271 3163.7390302 3513.0429779 3823.35742483 4439.63551762 4860.63642605 4959.5681376 5126.5823819 5139.67609807 4549.1407953 4028.9926005 3764.95731268 3514.6397592 3495.68083852 3619.41465008 3719.49010994 4459.51310022 5416.27500637 5705.73696621 5412.209508 5363.17017375 4882.17483126 4921.74851452 4943.55776191 5029.79445208 4969.7778879 5043.22816682 5107.57547688 5069.41870269 4764.33339014 4387.24503542 4255.83481425 4348.05903647 4790.55836772 5065.17132691 4944.76918711 5312.95239383 4891.55614438 4635.41551246 4573.23270033 4225.89954194 4021.14515838 4087.6282218 4284.50114933 4775.60706355 5268.91128094 5789.72762238 5754.87980308 5591.9826157 5206.41215432 4829.31198831 4745.75884989 5038.61615676 5140.03500658 5278.14668079 5592.10036418 5794.00301757 5412.30329385 5070.46994768 4834.74980682 4591.06621489 4530.61140151 4714.20575016 5175.90531232 5634.1789553 5867.09681833 5768.77215479 5206.32896443 4578.01195312 4189.62297625 3923.65601924 3882.19837928 4411.71404286 5046.26511867 5532.56007848 5868.72477429 5622.52840005 5226.041285 4897.81428319 4870.35161815 5043.62640406 5356.41891769 5447.1699939 5505.44079984 5234.61102222 5021.89938399 4922.21983385 4904.82654841 </DataArray>
<DataArray Name="GFP median" format="ascii" type="Float32">57.0 169.0 206.0 198.0 180.0 160.0 138.0 117.0 98.0 82.0 73.0 71.0 69.0 67.0 71.0 77.0 86.0 94.0 98.0 96.0 94.0 96.0 92.0 87.0 82.0 80.0 79.0 81.0 80.0 82.0 88.0 89.0 86.0 84.0 79.0 79.0 80.0 83.0 81.0 84.0 85.0 83.0 77.0 72.0 75.0 74.0 76.0 79.0 77.0 88.0 86.0 79.0 72.0 69.0 70.0 65.0 65.0 65.0 74.0 86.0 82.0 77.0 71.0 73.0 70.0 65.0 67.0 66.0 77.0 77.0 74.0 72.0 66.0 70.0 65.0 64.0 58.0 67.0 76.0 73.0 66.0 63.0 59.0 61.0 57.0 55.0 54.0 69.0 63.0 64.0 59.0 62.0 57.0 59.0 51.0 55.0 35.0 0.0 0.0 0.0 </DataArray>
<DataArray Name="GFP mean" format="ascii" type="Float32">60.9781756181 182.184094819 219.17467001 210.92236625 193.08944586 171.880610413 149.752350801 128.587218365 108.695868003 92.8535519639 84.5117805373 84.3964407421 83.7089050819 83.2413222359 86.6213104657 91.9735387232 100.703202847 106.159207526 111.077204643 110.372761905 108.418534503 109.895735273 105.090874398 98.9257105027 94.8800591124 91.1150149155 89.4575071485 92.9869902061 92.3163130599 95.1044604184 101.738637973 103.093449907 99.6611001038 97.5630781152 92.4516480394 91.9211728865 90.4393459666 93.4585627354 90.3613016874 92.4131293877 95.9157472417 94.0791843091 87.9798062164 81.4184131052 85.4812893308 85.1743931417 88.4846040006 89.5023840485 84.9405953752 96.4924769375 94.0649853085 87.0611438904 80.6662890053 76.5425127796 77.7780468901 74.4220256112 78.0899876273 78.0447495666 85.7930840859 94.7339150494 90.0404413552 84.9184479886 78.7339259396 79.9671998477 79.5720071356 75.5892483128 76.4782830864 75.9476938131 86.0200224642 84.8501246517 79.7277846712 77.4816172923 71.6099724265 76.5869230387 73.2905557417 73.8974016049 69.9602085143 77.6334862598 83.1692926913 79.8755680696 71.6362265573 68.2916686424 64.5121518869 66.9288362111 65.4146729716 65.8831853496 66.0159765677 79.2433257056 73.5605980735 72.3534782609 67.5207457247 71.0406210869 66.4228531206 70.7698172996 64.5441340264 67.644820193 56.6823322853 51.4779916194 49.4076591807 49.0636530713 </DataArray>
<DataArray Name="GFP +1 stddev" format="ascii" type="Float32">100.221459493 250.376890987 297.522583021 287.041786034 265.150072777 239.332287063 212.53193764 186.166494937 161.637858117 142.166932083 133.588894308 137.013277347 138.418164926 139.488446875 145.892239072 153.806842248 167.333792801 175.877472177 181.501406006 181.972918203 180.110068857 177.34305394 168.565220401 160.284958483 154.164456378 150.239297901 149.619078355 153.974612802 159.095899014 168.699806782 177.274966757 176.661170464 172.894768411 167.435639477 162.606822578 162.231611385 161.360389755 163.955214343 161.376991269 163.880432939 167.115597682 163.103335084 154.216088082 146.655172791 151.421103074 154.388252792 159.654621051 159.821436852 157.830597391 166.432137677 162.148871159 154.686824666 145.67320819 139.955012796 141.712608919 139.878126544 147.195754851 150.632016225 161.883343794 170.594839135 164.820001502 157.073920091 148.227177326 148.8566682 150.555217522 147.283285768 149.129137732 150.728041259 162.138371222 158.418482618 150.935017083 147.013982467 139.367379512 143.89673957 141.950629658 145.841166535 145.021376606 154.230462821 159.121726193 152.030463707 139.297234184 133.018965637 127.151245265 129.236126148 131.835408009 136.920253973 140.397157511 155.850928294 148.54411893 144.644842095 137.50513172 140.828525613 137.441346515 143.957377156 138.349079619 141.843477862 129.032944047 122.343352579 119.566192759 119.098119932 </DataArray>
<DataArray Name="GFP -1 stddev" format="ascii" type="Float32">21.7348917427 113.991298652 140.826756998 134.802946467 121.028818943 104.428933763 86.9727639619 71.0079417923 55.7538778887 43.5401718443 35.434666767 31.779604137 28.9996452375 26.9941975965 27.350381859 30.1402351981 34.072612893 36.4409428739 40.65300328 38.7726056068 36.7270001485 42.4484166067 41.6165283948 37.5664625226 35.5956618463 31.9907319302 29.2959359416 31.9993676098 25.5367271056 21.5091140549 26.2023091882 29.5257293495 26.4274317964 27.6905167533 22.2964735009 21.6107343876 19.5183021779 22.9619111277 19.3456121053 20.9458258365 24.7158968017 25.0550335347 21.7435243505 16.1816534198 19.5414755878 15.9605334912 17.3145869505 19.1833312455 12.0505933596 26.5528161978 25.9810994583 19.435463115 15.6593698202 13.1300127628 13.8434848614 8.96592467833 8.9842204038 5.45748290826 9.70282437826 18.8729909641 15.2608812087 12.7629758862 9.24067455278 11.0777314952 8.58879674923 3.89521085791 3.8274284404 1.16734636684 9.90167370672 11.2817666855 8.52055225983 7.94925211734 3.85256534142 9.27710650718 4.63048182562 1.9536366748 -5.10095957743 1.03650969848 7.21685918988 7.72067243224 3.97521893024 3.56437164763 1.87305850875 4.62154627419 -1.00606206547 -5.15388327427 -8.36520437534 2.63572311748 -1.42292278304 0.0621144267114 -2.46364027099 1.25271656078 -4.59564027416 -2.41774255651 -9.26081156606 -6.55383747578 -15.6682794759 -19.3873693406 -20.7508743976 -20.970813789 </DataArray>
<DataArray Name="time" format="ascii" type="Float32">0.0 10.5877379222 21.1754758444 31.7632137666 42.3509516887 52.9386896109 63.5264275331 74.1141654553 84.7019033775 95.2896412997 105.877379222 116.465117144 127.052855066 137.640592988 148.228330911 158.816068833 169.403806755 179.991544677 190.579282599 201.167020522 211.754758444 222.342496366 232.930234288 243.51797221 254.105710132 264.693448055 275.281185977 285.868923899 296.456661821 307.044399743 317.632137666 328.219875588 338.80761351 349.395351432 359.983089354 370.570827277 381.158565199 391.746303121 402.334041043 412.921778965 423.509516887 434.09725481 444.684992732 455.272730654 465.860468576 476.448206498 487.035944421 497.623682343 508.211420265 518.799158187 529.386896109 539.974634032 550.562371954 561.150109876 571.737847798 582.32558572 592.913323642 603.501061565 614.088799487 624.676537409 635.264275331 645.852013253 656.439751176 667.027489098 677.61522702 688.202964942 698.790702864 709.378440787 719.966178709 730.553916631 741.141654553 751.729392475 762.317130397 772.90486832 783.492606242 794.080344164 804.668082086 815.255820008 825.843557931 836.431295853 847.019033775 857.606771697 868.194509619 878.782247542 889.369985464 899.957723386 910.545461308 921.13319923 931.720937152 942.308675075 952.896412997 963.484150919 974.071888841 984.659626763 995.247364686 1005.83510261 1016.42284053 1027.01057845 1037.59831637 1048.1860543 </DataArray>
<DataArray Name="GFP coefficient of variation" format="ascii" type="Float32">0.643562774347 0.374307077879 0.357467918204 0.36088832653 0.373198165212 0.392433308726 0.419222713388 0.447783825677 0.487065341922 0.531087708295 0.580713285867 0.623448526294 0.65356558888 0.675711571232 0.6842534278 0.672294492345 0.661653135852 0.656733092463 0.634011286018 0.64871219187 0.661247956201 0.613739181951 0.60399484129 0.620255822963 0.624835163686 0.648897254093 0.672515623613 0.655872638324 0.723377957165 0.773836958222 0.742454688697 0.713602276612 0.734827011051 0.716178319829 0.758830978422 0.76489927501 0.784183510293 0.754309177718 0.785908217965 0.773345779163 0.742316590211 0.73368143316 0.752857783103 0.801253146523 0.771394702388 0.812613475689 0.804320908185 0.785666812684 0.858129163018 0.724819830099 0.723796273681 0.77676076552 0.805874671895 0.828461174241 0.822012953334 0.879525925226 0.884950418398 0.930072388744 0.886904352703 0.800778940106 0.83051081293 0.849703142385 0.882634144779 0.861471559386 0.892062585092 0.948468718173 0.949954048575 0.984629600871 0.884891058813 0.867038890847 0.893129449226 0.897404669712 0.946200714637 0.878868269685 0.936820211298 0.973562850217 1.07291229809 0.986648677672 0.913226877898 0.903341251664 0.944508259001 0.947806639983 0.970965803279 0.930948354464 1.01537976145 1.07822759703 1.12671484708 0.966738862939 1.0193435456 0.999141514296 1.03648716027 0.982366193572 1.06918763736 1.03416347037 1.14348029772 1.09688602109 1.27642263196 1.37661471885 1.41999306872 1.42742055425 </DataArray>
</PointData>
<CellData/>
<Cells>
<DataArray Name="connectivity" format="ascii" type="Int32">0</DataArray>
<DataArray Name="offsets" format="ascii" type="Int32">0</DataArray>
<DataArray Name="types" format="ascii" type="UInt8">11</DataArray>
</Cells>
</Piece>
</UnstructuredGrid>
</VTKFile>
