<?xml version="1.0" ?>
<VTKFile byte_order="LittleEndian" type="UnstructuredGrid" version="0.1">
<UnstructuredGrid>
<Piece NumberOfCells="0" NumberOfPoints="400">
<Points>
<DataArray NumberOfComponents="3" format="ascii" type="Float32">50.0 50.0 50.0 50.0 50.0 50.0 50.0 50.0 50.0 50.0 50.0 50.0 50.0 50.0 50.0 48.4688102406 48.4688102406 48.4688102406 0.0 0.0 0.0 0.0 0.0 0.0 0.0 0.0 0.0 0.0 0.0 0.0 0.0 0.0 0.0 0.0 0.0 0.0 0.0 0.0 0.0 0.0 0.0 0.0 0.0 0.0 0.0 0.0 0.0 0.0 0.0 0.0 0.0 0.0 0.0 0.0 0.0 0.0 0.0 0.0 0.0 0.0 0.0 0.0 0.0 0.0 0.0 0.0 0.0 0.0 0.0 0.0 0.0 0.0 0.0 0.0 0.0 0.0 0.0 0.0 0.0 0.0 0.0 0.0 0.0 0.0 0.0 0.0 0.0 0.0 0.0 0.0 0.0 0.0 0.0 0.0 0.0 0.0 0.0 0.0 0.0 0.0 0.0 0.0 0.0 0.0 0.0 0.0 0.0 0.0 -9.56592649112 -9.56592649112 -9.56592649112 50.0 50.0 50.0 50.0 50.0 50.0 50.0 50.0 50.0 50.0 50.0 50.0 50.0 50.0 50.0 -3.89238399829 -3.89238399829 -3.89238399829 0.0 0.0 0.0 0.0 0.0 0.0 0.0 0.0 0.0 0.0 0.0 0.0 0.0 0.0 0.0 0.0 0.0 0.0 0.0 0.0 0.0 0.0 0.0 0.0 0.0 0.0 0.0 0.0 0.0 0.0 0.0 0.0 0.0 0.0 0.0 0.0 0.0 0.0 0.0 0.0 0.0 0.0 0.0 0.0 0.0 0.0 0.0 0.0 0.0 0.0 0.0 0.0 0.0 0.0 0.0 0.0 0.0 0.0 0.0 0.0 0.0 0.0 0.0 0.0 0.0 0.0 0.0 0.0 0.0 0.0 0.0 0.0 0.0 0.0 0.0 0.0 0.0 0.0 0.0 0.0 0.0 0.0 0.0 0.0 0.0 0.0 0.0 0.0 0.0 0.0 6.77080184616 6.77080184616 6.77080184616 50.0 50.0 50.0 50.0 50.0 50.0 50.0 50.0 50.0 50.0 50.0 50.0 25.4197173626 25.4197173626 25.4197173626 0.0 0.0 0.0 0.0 0.0 0.0 0.0 0.0 0.0 0.0 0.0 0.0 0.0 0.0 0.0 0.0 0.0 0.0 0.0 0.0 0.0 0.0 0.0 0.0 0.0 0.0 0.0 0.0 0.0 0.0 0.0 0.0 0.0 0.0 0.0 0.0 0.0 0.0 0.0 0.0 0.0 0.0 0.0 0.0 0.0 0.0 0.0 0.0 0.0 0.0 0.0 0.0 0.0 0.0 0.0 0.0 0.0 0.0 0.0 0.0 0.0 0.0 0.0 0.0 0.0 0.0 0.0 0.0 0.0 0.0 0.0 0.0 0.0 0.0 0.0 0.0 0.0 0.0 0.0 0.0 0.0 0.0 0.0 0.0 0.0 0.0 0.0 0.0 0.0 0.0 -10.04574061 -10.04574061 -10.04574061 50.0 50.0 50.0 50.0 50.0 50.0 50.0 50.0 50.0 50.0 50.0 50.0 50.0 50.0 50.0 -8.07684758807 -8.07684758807 -8.07684758807 0.0 0.0 0.0 0.0 0.0 0.0 0.0 0.0 0.0 0.0 0.0 0.0 0.0 0.0 0.0 0.0 0.0 0.0 0.0 0.0 0.0 0.0 0.0 0.0 0.0 0.0 0.0 0.0 0.0 0.0 0.0 0.0 0.0 0.0 0.0 0.0 0.0 0.0 0.0 0.0 0.0 0.0 0.0 0.0 0.0 0.0 0.0 0.0 0.0 0.0 0.0 0.0 0.0 0.0 0.0 0.0 0.0 0.0 0.0 0.0 0.0 0.0 0.0 0.0 0.0 0.0 0.0 0.0 0.0 0.0 0.0 0.0 0.0 0.0 0.0 0.0 0.0 0.0 0.0 0.0 0.0 0.0 0.0 0.0 0.0 0.0 0.0 0.0 0.0 0.0 15.6192000249 15.6192000249 15.6192000249 50.0 50.0 50.0 50.0 50.0 50.0 50.0 50.0 50.0 50.0 50.0 50.0 16.5655477814 16.5655477814 16.5655477814 0.0 0.0 0.0 0.0 0.0 0.0 0.0 0.0 0.0 0.0 0.0 0.0 0.0 0.0 0.0 0.0 0.0 0.0 0.0 0.0 0.0 0.0 0.0 0.0 0.0 0.0 0.0 0.0 0.0 0.0 0.0 0.0 0.0 0.0 0.0 0.0 0.0 0.0 0.0 0.0 0.0 0.0 0.0 0.0 0.0 0.0 0.0 0.0 0.0 0.0 0.0 0.0 0.0 0.0 0.0 0.0 0.0 0.0 0.0 0.0 0.0 0.0 0.0 0.0 0.0 0.0 0.0 0.0 0.0 0.0 0.0 0.0 0.0 0.0 0.0 0.0 0.0 0.0 0.0 0.0 0.0 0.0 0.0 0.0 0.0 0.0 0.0 0.0 0.0 0.0 -8.12835965877 -8.12835965877 -8.12835965877 50.0 50.0 50.0 50.0 50.0 50.0 50.0 50.0 50.0 50.0 50.0 50.0 50.0 50.0 50.0 -10.1479134265 -10.1479134265 -10.1479134265 0.0 0.0 0.0 0.0 0.0 0.0 0.0 0.0 0.0 0.0 0.0 0.0 0.0 0.0 0.0 0.0 0.0 0.0 0.0 0.0 0.0 0.0 0.0 0.0 0.0 0.0 0.0 0.0 0.0 0.0 0.0 0.0 0.0 0.0 0.0 0.0 0.0 0.0 0.0 0.0 0.0 0.0 0.0 0.0 0.0 0.0 0.0 0.0 0.0 0.0 0.0 0.0 0.0 0.0 0.0 0.0 0.0 0.0 0.0 0.0 0.0 0.0 0.0 0.0 0.0 0.0 0.0 0.0 0.0 0.0 0.0 0.0 0.0 0.0 0.0 0.0 0.0 0.0 0.0 0.0 0.0 0.0 0.0 0.0 0.0 0.0 0.0 0.0 0.0 0.0 24.8004679414 24.8004679414 24.8004679414 50.0 50.0 50.0 50.0 50.0 50.0 50.0 50.0 50.0 50.0 50.0 50.0 7.35285062803 7.35285062803 7.35285062803 0.0 0.0 0.0 0.0 0.0 0.0 0.0 0.0 0.0 0.0 0.0 0.0 0.0 0.0 0.0 0.0 0.0 0.0 0.0 0.0 0.0 0.0 0.0 0.0 0.0 0.0 0.0 0.0 0.0 0.0 0.0 0.0 0.0 0.0 0.0 0.0 0.0 0.0 0.0 0.0 0.0 0.0 0.0 0.0 0.0 0.0 0.0 0.0 0.0 0.0 0.0 0.0 0.0 0.0 0.0 0.0 0.0 0.0 0.0 0.0 0.0 0.0 0.0 0.0 0.0 0.0 0.0 0.0 0.0 0.0 0.0 0.0 0.0 0.0 0.0 0.0 0.0 0.0 0.0 0.0 0.0 0.0 0.0 0.0 0.0 0.0 0.0 0.0 0.0 0.0 -4.39421519923 -4.39421519923 -4.39421519923 50.0 50.0 50.0 50.0 50.0 50.0 50.0 50.0 50.0 50.0 50.0 50.0 50.0 50.0 50.0 -9.47259757837 -9.47259757837 -9.47259757837 0.0 0.0 0.0 0.0 0.0 0.0 0.0 0.0 0.0 0.0 0.0 0.0 0.0 0.0 0.0 0.0 0.0 0.0 0.0 0.0 0.0 0.0 0.0 0.0 0.0 0.0 0.0 0.0 0.0 0.0 0.0 0.0 0.0 0.0 0.0 0.0 0.0 0.0 0.0 0.0 0.0 0.0 0.0 0.0 0.0 0.0 0.0 0.0 0.0 0.0 0.0 0.0 0.0 0.0 0.0 0.0 0.0 0.0 0.0 0.0 0.0 0.0 0.0 0.0 0.0 0.0 0.0 0.0 0.0 0.0 0.0 0.0 0.0 0.0 0.0 0.0 0.0 0.0 0.0 0.0 0.0 0.0 0.0 0.0 0.0 0.0 0.0 0.0 0.0 0.0 37.7185653613 37.7185653613 37.7185653613 50.0 50.0 50.0 50.0 50.0 50.0 50.0 50.0 50.0 50.0 50.0 50.0 2.7496448112 2.7496448112 2.7496448112 0.0 0.0 0.0 0.0 0.0 0.0 0.0 0.0 0.0 0.0 0.0 0.0 0.0 0.0 0.0 0.0 0.0 0.0 0.0 0.0 0.0 0.0 0.0 0.0 0.0 0.0 0.0 0.0 0.0 0.0 0.0 0.0 0.0 0.0 0.0 0.0 0.0 0.0 0.0 0.0 0.0 0.0 0.0 0.0 0.0 0.0 0.0 0.0 0.0 0.0 0.0 0.0 0.0 0.0 0.0 0.0 0.0 0.0 0.0 0.0 0.0 0.0 0.0 0.0 0.0 0.0 0.0 0.0 0.0 0.0 0.0 0.0 0.0 0.0 0.0 0.0 0.0 0.0 0.0 0.0 0.0 0.0 0.0 0.0 0.0 0.0 0.0 0.0 0.0 0.0 -0.478491121465 -0.478491121465 -0.478491121465 50.0 50.0 50.0 50.0 50.0 50.0 50.0 50.0 50.0 50.0 50.0 50.0 36.9497227572 36.9497227572 36.9497227572 0.0 0.0 0.0 0.0 0.0 0.0 0.0 0.0 0.0 0.0 0.0 0.0 0.0 0.0 0.0 0.0 0.0 0.0 0.0 0.0 0.0 0.0 0.0 0.0 0.0 0.0 0.0 0.0 0.0 0.0 0.0 0.0 0.0 0.0 0.0 0.0 0.0 0.0 0.0 0.0 0.0 0.0 0.0 0.0 0.0 0.0 0.0 0.0 0.0 0.0 0.0 0.0 0.0 0.0 0.0 0.0 0.0 0.0 0.0 0.0 0.0 0.0 0.0 0.0 0.0 0.0 0.0 0.0 0.0 0.0 0.0 0.0 0.0 0.0 0.0 0.0 0.0 0.0 0.0 0.0 0.0 0.0 0.0 0.0 0.0 0.0 0.0 0.0 0.0 0.0 -8.85671582639 -8.85671582639 -8.85671582639 -5.10799350205 -5.10799350205 -5.10799350205 0.355998553107 0.355998553107 0.355998553107 6.01339757708 6.01339757708 6.01339757708 10.2312463283 10.2312463283 10.2312463283 12.3530617883 12.3530617883 12.3530617883 10.585472694 10.585472694 10.585472694 7.75988235161 7.75988235161 7.75988235161 5.61025005604 5.61025005604 5.61025005604 3.88744896265 3.88744896265 3.88744896265 2.88753694546 2.88753694546 2.88753694546 2.38566581602 2.38566581602 2.38566581602 1.89993225467 1.89993225467 1.89993225467 1.22955477725 1.22955477725 1.22955477725 0.806815365063 0.806815365063 0.806815365063 0.494395177903 0.494395177903 0.494395177903 0.423957956757 0.423957956757 0.423957956757 0.302063658901 0.302063658901 0.302063658901 0.204442568809 0.204442568809 0.204442568809 0.121221597529 0.121221597529 0.121221597529 -0.0119070292442 -0.0119070292442 -0.0119070292442 -0.135910302454 -0.135910302454 -0.135910302454 -0.172167748645 -0.172167748645 -0.172167748645 -0.172167748645 -0.172167748645 -0.172167748645 -0.210008601467 -0.210008601467 -0.210008601467 -0.304713166706 -0.304713166706 -0.304713166706 -0.347087656097 -0.347087656097 -0.347087656097 -0.347087656097 -0.347087656097 -0.347087656097 -0.347087656097 -0.347087656097 -0.347087656097 -0.347087656097 -0.347087656097 -0.347087656097 -0.347087656097 -0.347087656097 -0.347087656097 -0.347087656097 -0.347087656097 -0.347087656097 -0.347087656097 -0.347087656097 -0.347087656097 -0.347087656097 -0.347087656097 -0.347087656097 -0.347087656097 -0.347087656097 -0.347087656097 -0.347087656097 -0.347087656097 -0.347087656097 </DataArray>
</Points>
<PointData>
<DataArray Name="Points" format="ascii" type="Float32">50.0 50.0 50.0 50.0 50.0 50.0 50.0 50.0 50.0 50.0 50.0 50.0 50.0 50.0 50.0 48.4688102406 48.4688102406 48.4688102406 0.0 0.0 0.0 0.0 0.0 0.0 0.0 0.0 0.0 0.0 0.0 0.0 0.0 0.0 0.0 0.0 0.0 0.0 0.0 0.0 0.0 0.0 0.0 0.0 0.0 0.0 0.0 0.0 0.0 0.0 0.0 0.0 0.0 0.0 0.0 0.0 0.0 0.0 0.0 0.0 0.0 0.0 0.0 0.0 0.0 0.0 0.0 0.0 0.0 0.0 0.0 0.0 0.0 0.0 0.0 0.0 0.0 0.0 0.0 0.0 0.0 0.0 0.0 0.0 0.0 0.0 0.0 0.0 0.0 0.0 0.0 0.0 0.0 0.0 0.0 0.0 0.0 0.0 0.0 0.0 0.0 0.0 0.0 0.0 0.0 0.0 0.0 0.0 0.0 0.0 -9.56592649112 -9.56592649112 -9.56592649112 50.0 50.0 50.0 50.0 50.0 50.0 50.0 50.0 50.0 50.0 50.0 50.0 50.0 50.0 50.0 -3.89238399829 -3.89238399829 -3.89238399829 0.0 0.0 0.0 0.0 0.0 0.0 0.0 0.0 0.0 0.0 0.0 0.0 0.0 0.0 0.0 0.0 0.0 0.0 0.0 0.0 0.0 0.0 0.0 0.0 0.0 0.0 0.0 0.0 0.0 0.0 0.0 0.0 0.0 0.0 0.0 0.0 0.0 0.0 0.0 0.0 0.0 0.0 0.0 0.0 0.0 0.0 0.0 0.0 0.0 0.0 0.0 0.0 0.0 0.0 0.0 0.0 0.0 0.0 0.0 0.0 0.0 0.0 0.0 0.0 0.0 0.0 0.0 0.0 0.0 0.0 0.0 0.0 0.0 0.0 0.0 0.0 0.0 0.0 0.0 0.0 0.0 0.0 0.0 0.0 0.0 0.0 0.0 0.0 0.0 0.0 6.77080184616 6.77080184616 6.77080184616 50.0 50.0 50.0 50.0 50.0 50.0 50.0 50.0 50.0 50.0 50.0 50.0 25.4197173626 25.4197173626 25.4197173626 0.0 0.0 0.0 0.0 0.0 0.0 0.0 0.0 0.0 0.0 0.0 0.0 0.0 0.0 0.0 0.0 0.0 0.0 0.0 0.0 0.0 0.0 0.0 0.0 0.0 0.0 0.0 0.0 0.0 0.0 0.0 0.0 0.0 0.0 0.0 0.0 0.0 0.0 0.0 0.0 0.0 0.0 0.0 0.0 0.0 0.0 0.0 0.0 0.0 0.0 0.0 0.0 0.0 0.0 0.0 0.0 0.0 0.0 0.0 0.0 0.0 0.0 0.0 0.0 0.0 0.0 0.0 0.0 0.0 0.0 0.0 0.0 0.0 0.0 0.0 0.0 0.0 0.0 0.0 0.0 0.0 0.0 0.0 0.0 0.0 0.0 0.0 0.0 0.0 0.0 -10.04574061 -10.04574061 -10.04574061 50.0 50.0 50.0 50.0 50.0 50.0 50.0 50.0 50.0 50.0 50.0 50.0 50.0 50.0 50.0 -8.07684758807 -8.07684758807 -8.07684758807 0.0 0.0 0.0 0.0 0.0 0.0 0.0 0.0 0.0 0.0 0.0 0.0 0.0 0.0 0.0 0.0 0.0 0.0 0.0 0.0 0.0 0.0 0.0 0.0 0.0 0.0 0.0 0.0 0.0 0.0 0.0 0.0 0.0 0.0 0.0 0.0 0.0 0.0 0.0 0.0 0.0 0.0 0.0 0.0 0.0 0.0 0.0 0.0 0.0 0.0 0.0 0.0 0.0 0.0 0.0 0.0 0.0 0.0 0.0 0.0 0.0 0.0 0.0 0.0 0.0 0.0 0.0 0.0 0.0 0.0 0.0 0.0 0.0 0.0 0.0 0.0 0.0 0.0 0.0 0.0 0.0 0.0 0.0 0.0 0.0 0.0 0.0 0.0 0.0 0.0 15.6192000249 15.6192000249 15.6192000249 50.0 50.0 50.0 50.0 50.0 50.0 50.0 50.0 50.0 50.0 50.0 50.0 16.5655477814 16.5655477814 16.5655477814 0.0 0.0 0.0 0.0 0.0 0.0 0.0 0.0 0.0 0.0 0.0 0.0 0.0 0.0 0.0 0.0 0.0 0.0 0.0 0.0 0.0 0.0 0.0 0.0 0.0 0.0 0.0 0.0 0.0 0.0 0.0 0.0 0.0 0.0 0.0 0.0 0.0 0.0 0.0 0.0 0.0 0.0 0.0 0.0 0.0 0.0 0.0 0.0 0.0 0.0 0.0 0.0 0.0 0.0 0.0 0.0 0.0 0.0 0.0 0.0 0.0 0.0 0.0 0.0 0.0 0.0 0.0 0.0 0.0 0.0 0.0 0.0 0.0 0.0 0.0 0.0 0.0 0.0 0.0 0.0 0.0 0.0 0.0 0.0 0.0 0.0 0.0 0.0 0.0 0.0 -8.12835965877 -8.12835965877 -8.12835965877 50.0 50.0 50.0 50.0 50.0 50.0 50.0 50.0 50.0 50.0 50.0 50.0 50.0 50.0 50.0 -10.1479134265 -10.1479134265 -10.1479134265 0.0 0.0 0.0 0.0 0.0 0.0 0.0 0.0 0.0 0.0 0.0 0.0 0.0 0.0 0.0 0.0 0.0 0.0 0.0 0.0 0.0 0.0 0.0 0.0 0.0 0.0 0.0 0.0 0.0 0.0 0.0 0.0 0.0 0.0 0.0 0.0 0.0 0.0 0.0 0.0 0.0 0.0 0.0 0.0 0.0 0.0 0.0 0.0 0.0 0.0 0.0 0.0 0.0 0.0 0.0 0.0 0.0 0.0 0.0 0.0 0.0 0.0 0.0 0.0 0.0 0.0 0.0 0.0 0.0 0.0 0.0 0.0 0.0 0.0 0.0 0.0 0.0 0.0 0.0 0.0 0.0 0.0 0.0 0.0 0.0 0.0 0.0 0.0 0.0 0.0 24.8004679414 24.8004679414 24.8004679414 50.0 50.0 50.0 50.0 50.0 50.0 50.0 50.0 50.0 50.0 50.0 50.0 7.35285062803 7.35285062803 7.35285062803 0.0 0.0 0.0 0.0 0.0 0.0 0.0 0.0 0.0 0.0 0.0 0.0 0.0 0.0 0.0 0.0 0.0 0.0 0.0 0.0 0.0 0.0 0.0 0.0 0.0 0.0 0.0 0.0 0.0 0.0 0.0 0.0 0.0 0.0 0.0 0.0 0.0 0.0 0.0 0.0 0.0 0.0 0.0 0.0 0.0 0.0 0.0 0.0 0.0 0.0 0.0 0.0 0.0 0.0 0.0 0.0 0.0 0.0 0.0 0.0 0.0 0.0 0.0 0.0 0.0 0.0 0.0 0.0 0.0 0.0 0.0 0.0 0.0 0.0 0.0 0.0 0.0 0.0 0.0 0.0 0.0 0.0 0.0 0.0 0.0 0.0 0.0 0.0 0.0 0.0 -4.39421519923 -4.39421519923 -4.39421519923 50.0 50.0 50.0 50.0 50.0 50.0 50.0 50.0 50.0 50.0 50.0 50.0 50.0 50.0 50.0 -9.47259757837 -9.47259757837 -9.47259757837 0.0 0.0 0.0 0.0 0.0 0.0 0.0 0.0 0.0 0.0 0.0 0.0 0.0 0.0 0.0 0.0 0.0 0.0 0.0 0.0 0.0 0.0 0.0 0.0 0.0 0.0 0.0 0.0 0.0 0.0 0.0 0.0 0.0 0.0 0.0 0.0 0.0 0.0 0.0 0.0 0.0 0.0 0.0 0.0 0.0 0.0 0.0 0.0 0.0 0.0 0.0 0.0 0.0 0.0 0.0 0.0 0.0 0.0 0.0 0.0 0.0 0.0 0.0 0.0 0.0 0.0 0.0 0.0 0.0 0.0 0.0 0.0 0.0 0.0 0.0 0.0 0.0 0.0 0.0 0.0 0.0 0.0 0.0 0.0 0.0 0.0 0.0 0.0 0.0 0.0 37.7185653613 37.7185653613 37.7185653613 50.0 50.0 50.0 50.0 50.0 50.0 50.0 50.0 50.0 50.0 50.0 50.0 2.7496448112 2.7496448112 2.7496448112 0.0 0.0 0.0 0.0 0.0 0.0 0.0 0.0 0.0 0.0 0.0 0.0 0.0 0.0 0.0 0.0 0.0 0.0 0.0 0.0 0.0 0.0 0.0 0.0 0.0 0.0 0.0 0.0 0.0 0.0 0.0 0.0 0.0 0.0 0.0 0.0 0.0 0.0 0.0 0.0 0.0 0.0 0.0 0.0 0.0 0.0 0.0 0.0 0.0 0.0 0.0 0.0 0.0 0.0 0.0 0.0 0.0 0.0 0.0 0.0 0.0 0.0 0.0 0.0 0.0 0.0 0.0 0.0 0.0 0.0 0.0 0.0 0.0 0.0 0.0 0.0 0.0 0.0 0.0 0.0 0.0 0.0 0.0 0.0 0.0 0.0 0.0 0.0 0.0 0.0 -0.478491121465 -0.478491121465 -0.478491121465 50.0 50.0 50.0 50.0 50.0 50.0 50.0 50.0 50.0 50.0 50.0 50.0 36.9497227572 36.9497227572 36.9497227572 0.0 0.0 0.0 0.0 0.0 0.0 0.0 0.0 0.0 0.0 0.0 0.0 0.0 0.0 0.0 0.0 0.0 0.0 0.0 0.0 0.0 0.0 0.0 0.0 0.0 0.0 0.0 0.0 0.0 0.0 0.0 0.0 0.0 0.0 0.0 0.0 0.0 0.0 0.0 0.0 0.0 0.0 0.0 0.0 0.0 0.0 0.0 0.0 0.0 0.0 0.0 0.0 0.0 0.0 0.0 0.0 0.0 0.0 0.0 0.0 0.0 0.0 0.0 0.0 0.0 0.0 0.0 0.0 0.0 0.0 0.0 0.0 0.0 0.0 0.0 0.0 0.0 0.0 0.0 0.0 0.0 0.0 0.0 0.0 0.0 0.0 0.0 0.0 0.0 0.0 -8.85671582639 -8.85671582639 -8.85671582639 -5.10799350205 -5.10799350205 -5.10799350205 0.355998553107 0.355998553107 0.355998553107 6.01339757708 6.01339757708 6.01339757708 10.2312463283 10.2312463283 10.2312463283 12.3530617883 12.3530617883 12.3530617883 10.585472694 10.585472694 10.585472694 7.75988235161 7.75988235161 7.75988235161 5.61025005604 5.61025005604 5.61025005604 3.88744896265 3.88744896265 3.88744896265 2.88753694546 2.88753694546 2.88753694546 2.38566581602 2.38566581602 2.38566581602 1.89993225467 1.89993225467 1.89993225467 1.22955477725 1.22955477725 1.22955477725 0.806815365063 0.806815365063 0.806815365063 0.494395177903 0.494395177903 0.494395177903 0.423957956757 0.423957956757 0.423957956757 0.302063658901 0.302063658901 0.302063658901 0.204442568809 0.204442568809 0.204442568809 0.121221597529 0.121221597529 0.121221597529 -0.0119070292442 -0.0119070292442 -0.0119070292442 -0.135910302454 -0.135910302454 -0.135910302454 -0.172167748645 -0.172167748645 -0.172167748645 -0.172167748645 -0.172167748645 -0.172167748645 -0.210008601467 -0.210008601467 -0.210008601467 -0.304713166706 -0.304713166706 -0.304713166706 -0.347087656097 -0.347087656097 -0.347087656097 -0.347087656097 -0.347087656097 -0.347087656097 -0.347087656097 -0.347087656097 -0.347087656097 -0.347087656097 -0.347087656097 -0.347087656097 -0.347087656097 -0.347087656097 -0.347087656097 -0.347087656097 -0.347087656097 -0.347087656097 -0.347087656097 -0.347087656097 -0.347087656097 -0.347087656097 -0.347087656097 -0.347087656097 -0.347087656097 -0.347087656097 -0.347087656097 -0.347087656097 -0.347087656097 -0.347087656097 </DataArray>
<DataArray Name="function -1 stddev" format="ascii" type="Float32">50.0 50.0 50.0 50.0 50.0 48.4688102406 0.0 0.0 0.0 0.0 0.0 0.0 0.0 0.0 0.0 0.0 0.0 0.0 0.0 0.0 0.0 0.0 0.0 0.0 0.0 0.0 0.0 0.0 0.0 0.0 0.0 0.0 0.0 0.0 0.0 0.0 -9.56592649112 50.0 50.0 50.0 50.0 50.0 -3.89238399829 0.0 0.0 0.0 0.0 0.0 0.0 0.0 0.0 0.0 0.0 0.0 0.0 0.0 0.0 0.0 0.0 0.0 0.0 0.0 0.0 0.0 0.0 0.0 0.0 0.0 0.0 0.0 0.0 0.0 0.0 6.77080184616 50.0 50.0 50.0 50.0 25.4197173626 0.0 0.0 0.0 0.0 0.0 0.0 0.0 0.0 0.0 0.0 0.0 0.0 0.0 0.0 0.0 0.0 0.0 0.0 0.0 0.0 0.0 0.0 0.0 0.0 0.0 0.0 0.0 0.0 0.0 0.0 -10.04574061 50.0 50.0 50.0 50.0 50.0 -8.07684758807 0.0 0.0 0.0 0.0 0.0 0.0 0.0 0.0 0.0 0.0 0.0 0.0 0.0 0.0 0.0 0.0 0.0 0.0 0.0 0.0 0.0 0.0 0.0 0.0 0.0 0.0 0.0 0.0 0.0 0.0 15.6192000249 50.0 50.0 50.0 50.0 16.5655477814 0.0 0.0 0.0 0.0 0.0 0.0 0.0 0.0 0.0 0.0 0.0 0.0 0.0 0.0 0.0 0.0 0.0 0.0 0.0 0.0 0.0 0.0 0.0 0.0 0.0 0.0 0.0 0.0 0.0 0.0 -8.12835965877 50.0 50.0 50.0 50.0 50.0 -10.1479134265 0.0 0.0 0.0 0.0 0.0 0.0 0.0 0.0 0.0 0.0 0.0 0.0 0.0 0.0 0.0 0.0 0.0 0.0 0.0 0.0 0.0 0.0 0.0 0.0 0.0 0.0 0.0 0.0 0.0 0.0 24.8004679414 50.0 50.0 50.0 50.0 7.35285062803 0.0 0.0 0.0 0.0 0.0 0.0 0.0 0.0 0.0 0.0 0.0 0.0 0.0 0.0 0.0 0.0 0.0 0.0 0.0 0.0 0.0 0.0 0.0 0.0 0.0 0.0 0.0 0.0 0.0 0.0 -4.39421519923 50.0 50.0 50.0 50.0 50.0 -9.47259757837 0.0 0.0 0.0 0.0 0.0 0.0 0.0 0.0 0.0 0.0 0.0 0.0 0.0 0.0 0.0 0.0 0.0 0.0 0.0 0.0 0.0 0.0 0.0 0.0 0.0 0.0 0.0 0.0 0.0 0.0 37.7185653613 50.0 50.0 50.0 50.0 2.7496448112 0.0 0.0 0.0 0.0 0.0 0.0 0.0 0.0 0.0 0.0 0.0 0.0 0.0 0.0 0.0 0.0 0.0 0.0 0.0 0.0 0.0 0.0 0.0 0.0 0.0 0.0 0.0 0.0 0.0 0.0 -0.478491121465 50.0 50.0 50.0 50.0 36.9497227572 0.0 0.0 0.0 0.0 0.0 0.0 0.0 0.0 0.0 0.0 0.0 0.0 0.0 0.0 0.0 0.0 0.0 0.0 0.0 0.0 0.0 0.0 0.0 0.0 0.0 0.0 0.0 0.0 0.0 0.0 -8.85671582639 -5.10799350205 0.355998553107 6.01339757708 10.2312463283 12.3530617883 10.585472694 7.75988235161 5.61025005604 3.88744896265 2.88753694546 2.38566581602 1.89993225467 1.22955477725 0.806815365063 0.494395177903 0.423957956757 0.302063658901 0.204442568809 0.121221597529 -0.0119070292442 -0.135910302454 -0.172167748645 -0.172167748645 -0.210008601467 -0.304713166706 -0.347087656097 -0.347087656097 -0.347087656097 -0.347087656097 -0.347087656097 -0.347087656097 -0.347087656097 -0.347087656097 -0.347087656097 -0.347087656097 </DataArray>
<DataArray Name="function +1 stddev" format="ascii" type="Float32">50.0 50.0 50.0 50.0 50.0 51.4426728205 0.0 0.0 0.0 0.0 0.0 0.0 0.0 0.0 0.0 0.0 0.0 0.0 0.0 0.0 0.0 0.0 0.0 0.0 0.0 0.0 0.0 0.0 0.0 0.0 0.0 0.0 0.0 0.0 0.0 0.0 17.5705501004 50.0 50.0 50.0 50.0 50.0 45.3771967379 0.0 0.0 0.0 0.0 0.0 0.0 0.0 0.0 0.0 0.0 0.0 0.0 0.0 0.0 0.0 0.0 0.0 0.0 0.0 0.0 0.0 0.0 0.0 0.0 0.0 0.0 0.0 0.0 0.0 0.0 55.2935031759 50.0 50.0 50.0 50.0 60.3528476553 0.0 0.0 0.0 0.0 0.0 0.0 0.0 0.0 0.0 0.0 0.0 0.0 0.0 0.0 0.0 0.0 0.0 0.0 0.0 0.0 0.0 0.0 0.0 0.0 0.0 0.0 0.0 0.0 0.0 0.0 29.6686256114 50.0 50.0 50.0 50.0 50.0 37.4868792593 0.0 0.0 0.0 0.0 0.0 0.0 0.0 0.0 0.0 0.0 0.0 0.0 0.0 0.0 0.0 0.0 0.0 0.0 0.0 0.0 0.0 0.0 0.0 0.0 0.0 0.0 0.0 0.0 0.0 0.0 59.088129779 50.0 50.0 50.0 50.0 59.3345309531 0.0 0.0 0.0 0.0 0.0 0.0 0.0 0.0 0.0 0.0 0.0 0.0 0.0 0.0 0.0 0.0 0.0 0.0 0.0 0.0 0.0 0.0 0.0 0.0 0.0 0.0 0.0 0.0 0.0 0.0 37.3495662401 50.0 50.0 50.0 50.0 50.0 28.8241576543 0.0 0.0 0.0 0.0 0.0 0.0 0.0 0.0 0.0 0.0 0.0 0.0 0.0 0.0 0.0 0.0 0.0 0.0 0.0 0.0 0.0 0.0 0.0 0.0 0.0 0.0 0.0 0.0 0.0 0.0 60.3547760134 50.0 50.0 50.0 50.0 55.6362223364 0.0 0.0 0.0 0.0 0.0 0.0 0.0 0.0 0.0 0.0 0.0 0.0 0.0 0.0 0.0 0.0 0.0 0.0 0.0 0.0 0.0 0.0 0.0 0.0 0.0 0.0 0.0 0.0 0.0 0.0 44.6463765825 50.0 50.0 50.0 50.0 50.0 17.1488843978 0.0 0.0 0.0 0.0 0.0 0.0 0.0 0.0 0.0 0.0 0.0 0.0 0.0 0.0 0.0 0.0 0.0 0.0 0.0 0.0 0.0 0.0 0.0 0.0 0.0 0.0 0.0 0.0 0.0 0.0 57.9884539673 50.0 50.0 50.0 50.0 52.475838367 0.0 0.0 0.0 0.0 0.0 0.0 0.0 0.0 0.0 0.0 0.0 0.0 0.0 0.0 0.0 0.0 0.0 0.0 0.0 0.0 0.0 0.0 0.0 0.0 0.0 0.0 0.0 0.0 0.0 0.0 49.5121702461 50.0 50.0 50.0 50.0 58.2746769485 0.0 0.0 0.0 0.0 0.0 0.0 0.0 0.0 0.0 0.0 0.0 0.0 0.0 0.0 0.0 0.0 0.0 0.0 0.0 0.0 0.0 0.0 0.0 0.0 0.0 0.0 0.0 0.0 0.0 0.0 14.8155612108 43.5339884342 50.350999836 54.8246362666 57.1229499733 58.0159802803 57.2834540058 55.8671077924 54.564126862 53.3594814603 52.5869349088 52.1770471063 51.7654043527 51.1718538493 50.7815790288 50.4848059106 50.4168872502 50.2984572749 50.2027842049 50.12063664 49.988087297 49.8633467833 49.8266383313 49.8266383313 49.7882122452 49.6915267157 49.6480252222 49.6480252222 49.6480252222 49.6480252222 49.6480252222 49.6480252222 49.6480252222 49.6480252222 49.6480252222 49.6480252222 </DataArray>
<DataArray Name="function coefficient of variation" format="ascii" type="Float32">0.0 0.0 0.0 0.0 0.0 0.0 0.0 0.0 0.0 0.0 0.0 0.0 0.0 0.0 0.0 0.0 0.0 0.0 0.0 0.0 0.0 0.0 0.0 0.0 0.0 0.0 0.0 0.0 0.0 0.0 0.0 0.0 0.0 0.0 0.0 0.0 0.0 0.0 0.0 0.0 0.0 0.0 0.0 0.0 0.0 0.0 0.0 0.0 0.0 0.0 0.0 0.0 0.0 0.0 0.0 0.0 0.0 0.0 0.0 0.0 0.0 0.0 0.0 0.0 0.0 0.0 0.0 0.0 0.0 0.0 0.0 0.0 0.0 0.0 0.0 0.0 0.0 0.0 0.0 0.0 0.0 0.0 0.0 0.0 0.0 0.0 0.0 0.0 0.0 0.0 0.0 0.0 0.0 0.0 0.0 0.0 0.0 0.0 0.0 0.0 0.0 0.0 0.0 0.0 0.0 0.0 0.0 0.0 0.0 0.0 0.0 0.0 0.0 0.0 0.0 0.0 0.0 0.0 0.0 0.0 0.0 0.0 0.0 0.0 0.0 0.0 0.0 0.0 0.0 0.0 0.0 0.0 0.0 0.0 0.0 0.0 0.0 0.0 0.0 0.0 0.0 0.0 0.0 0.0 0.0 0.0 0.0 0.0 0.0 0.0 0.0 0.0 0.0 0.0 0.0 0.0 0.0 0.0 0.0 0.0 0.0 0.0 0.0 0.0 0.0 0.0 0.0 0.0 0.0 0.0 0.0 0.0 0.0 0.0 0.0 0.0 0.0 0.0 0.0 0.0 0.0 0.0 0.0 0.0 0.0 0.0 0.0 0.0 0.0 0.0 0.0 0.0 0.0 0.0 0.0 0.0 0.0 0.0 0.0 0.0 0.0 0.0 0.0 0.0 0.0 0.0 0.0 0.0 0.0 0.0 0.0 0.0 0.0 0.0 0.0 0.0 0.0 0.0 0.0 0.0 0.0 0.0 0.0 0.0 0.0 0.0 0.0 0.0 0.0 0.0 0.0 0.0 0.0 0.0 0.0 0.0 0.0 0.0 0.0 0.0 0.0 0.0 0.0 0.0 0.0 0.0 0.0 0.0 0.0 0.0 0.0 0.0 0.0 0.0 0.0 0.0 0.0 0.0 0.0 0.0 0.0 0.0 0.0 0.0 0.0 0.0 0.0 0.0 0.0 0.0 0.0 0.0 0.0 0.0 0.0 0.0 0.0 0.0 0.0 0.0 0.0 0.0 0.0 0.0 0.0 0.0 0.0 0.0 0.0 0.0 0.0 0.0 0.0 0.0 0.0 0.0 0.0 0.0 0.0 0.0 0.0 0.0 0.0 0.0 0.0 0.0 0.0 0.0 0.0 0.0 0.0 0.0 0.0 0.0 0.0 0.0 0.0 0.0 0.0 0.0 0.0 0.0 0.0 0.0 0.0 0.0 0.0 0.0 0.0 0.0 0.0 0.0 0.0 0.0 0.0 0.0 0.0 0.0 0.0 0.0 0.0 0.0 0.0 0.0 0.0 0.0 0.0 0.0 0.0 0.0 0.0 0.0 0.0 0.0 0.0 0.0 0.0 0.0 0.0 0.0 0.0 0.0 0.0 0.0 0.0 0.0 0.0 0.0 0.0 0.0 0.0 0.0 0.0 0.0 0.0 0.0 0.0 0.0 0.0 0.0 0.0 0.0 0.0 0.0 0.0 0.0 0.0 0.0 0.0 0.0 0.0 0.0 0.0 0.0 0.0 0.0 0.0 0.0 0.0 0.0 </DataArray>
<DataArray Name="time" format="ascii" type="Float32">0.0 2.74391840961 5.48783681922 8.23175522884 10.9756736384 13.7195920481 16.4635104577 19.2074288673 21.9513472769 24.6952656865 27.4391840961 30.1831025057 32.9270209153 35.670939325 38.4148577346 41.1587761442 43.9026945538 46.6466129634 49.390531373 52.1344497826 54.8783681922 57.6222866019 60.3662050115 63.1101234211 65.8540418307 68.5979602403 71.3418786499 74.0857970595 76.8297154691 79.5736338787 82.3175522884 85.061470698 87.8053891076 90.5493075172 93.2932259268 96.0371443364 98.781062746 101.524981156 104.268899565 107.012817975 109.756736384 112.500654794 115.244573204 117.988491613 120.732410023 123.476328433 126.220246842 128.964165252 131.708083661 134.452002071 137.195920481 139.93983889 142.6837573 145.427675709 148.171594119 150.915512529 153.659430938 156.403349348 159.147267757 161.891186167 164.635104577 167.379022986 170.122941396 172.866859806 175.610778215 178.354696625 181.098615034 183.842533444 186.586451854 189.330370263 192.074288673 194.818207082 197.562125492 200.306043902 203.049962311 205.793880721 208.537799131 211.28171754 214.02563595 216.769554359 219.513472769 222.257391179 225.001309588 227.745227998 230.489146407 233.233064817 235.976983227 238.720901636 241.464820046 244.208738455 246.952656865 249.696575275 252.440493684 255.184412094 257.928330504 260.672248913 263.416167323 266.160085732 268.904004142 271.647922552 274.391840961 277.135759371 279.87967778 282.62359619 285.3675146 288.111433009 290.855351419 293.599269828 296.343188238 299.087106648 301.831025057 304.574943467 307.318861877 310.062780286 312.806698696 315.550617105 318.294535515 321.038453925 323.782372334 326.526290744 329.270209153 332.014127563 334.758045973 337.501964382 340.245882792 342.989801201 345.733719611 348.477638021 351.22155643 353.96547484 356.70939325 359.453311659 362.197230069 364.941148478 367.685066888 370.428985298 373.172903707 375.916822117 378.660740526 381.404658936 384.148577346 386.892495755 389.636414165 392.380332575 395.124250984 397.868169394 400.612087803 403.356006213 406.099924623 408.843843032 411.587761442 414.331679851 417.075598261 419.819516671 422.56343508 425.30735349 428.051271899 430.795190309 433.539108719 436.283027128 439.026945538 441.770863948 444.514782357 447.258700767 450.002619176 452.746537586 455.490455996 458.234374405 460.978292815 463.722211224 466.466129634 469.210048044 471.953966453 474.697884863 477.441803272 480.185721682 482.929640092 485.673558501 488.417476911 491.161395321 493.90531373 496.64923214 499.393150549 502.137068959 504.880987369 507.624905778 510.368824188 513.112742597 515.856661007 518.600579417 521.344497826 524.088416236 526.832334645 529.576253055 532.320171465 535.064089874 537.808008284 540.551926694 543.295845103 546.039763513 548.783681922 551.527600332 554.271518742 557.015437151 559.759355561 562.50327397 565.24719238 567.99111079 570.735029199 573.478947609 576.222866019 578.966784428 581.710702838 584.454621247 587.198539657 589.942458067 592.686376476 595.430294886 598.174213295 600.918131705 603.662050115 606.405968524 609.149886934 611.893805343 614.637723753 617.381642163 620.125560572 622.869478982 625.613397392 628.357315801 631.101234211 633.84515262 636.58907103 639.33298944 642.076907849 644.820826259 647.564744668 650.308663078 653.052581488 655.796499897 658.540418307 661.284336716 664.028255126 666.772173536 669.516091945 672.260010355 675.003928765 677.747847174 680.491765584 683.235683993 685.979602403 688.723520813 691.467439222 694.211357632 696.955276041 699.699194451 702.443112861 705.18703127 707.93094968 710.674868089 713.418786499 716.162704909 718.906623318 721.650541728 724.394460138 727.138378547 729.882296957 732.626215366 735.370133776 738.114052186 740.857970595 743.601889005 746.345807414 749.089725824 751.833644234 754.577562643 757.321481053 760.065399463 762.809317872 765.553236282 768.297154691 771.041073101 773.784991511 776.52890992 779.27282833 782.016746739 784.760665149 787.504583559 790.248501968 792.992420378 795.736338787 798.480257197 801.224175607 803.968094016 806.712012426 809.455930836 812.199849245 814.943767655 817.687686064 820.431604474 823.175522884 825.919441293 828.663359703 831.407278112 834.151196522 836.895114932 839.639033341 842.382951751 845.12687016 847.87078857 850.61470698 853.358625389 856.102543799 858.846462209 861.590380618 864.334299028 867.078217437 869.822135847 872.566054257 875.309972666 878.053891076 880.797809485 883.541727895 886.285646305 889.029564714 891.773483124 894.517401533 897.261319943 900.005238353 902.749156762 905.493075172 908.236993582 910.980911991 913.724830401 916.46874881 919.21266722 921.95658563 924.700504039 927.444422449 930.188340858 932.932259268 935.676177678 938.420096087 941.164014497 943.907932907 946.651851316 949.395769726 952.139688135 954.883606545 957.627524955 960.371443364 963.115361774 965.859280183 968.603198593 971.347117003 974.091035412 976.834953822 979.578872231 982.322790641 985.066709051 987.81062746 990.55454587 993.29846428 996.042382689 998.786301099 1001.53021951 1004.27413792 1007.01805633 1009.76197474 1012.50589315 1015.24981156 1017.99372997 1020.73764838 1023.48156679 1026.22548519 1028.9694036 1031.71332201 1034.45724042 1037.20115883 1039.94507724 1042.68899565 1045.43291406 1048.17683247 1050.92075088 1053.66466929 1056.4085877 1059.15250611 1061.89642452 1064.64034293 1067.38426134 1070.12817975 1072.87209816 1075.61601657 1078.35993498 1081.10385339 1083.8477718 1086.59169021 1089.33560862 1092.07952703 1094.82344544 </DataArray>
<DataArray Name="function variance" format="ascii" type="Float32">0.0 0.0 0.0 0.0 0.0 2.21096466096 0.0 0.0 0.0 0.0 0.0 0.0 0.0 0.0 0.0 0.0 0.0 0.0 0.0 0.0 0.0 0.0 0.0 0.0 0.0 0.0 0.0 0.0 0.0 0.0 0.0 0.0 0.0 0.0 0.0 0.0 184.097090451 0.0 0.0 0.0 0.0 0.0 606.87289648 0.0 0.0 0.0 0.0 0.0 0.0 0.0 0.0 0.0 0.0 0.0 0.0 0.0 0.0 0.0 0.0 0.0 0.0 0.0 0.0 0.0 0.0 0.0 0.0 0.0 0.0 0.0 0.0 0.0 0.0 588.613136084 0.0 0.0 0.0 0.0 305.080898011 0.0 0.0 0.0 0.0 0.0 0.0 0.0 0.0 0.0 0.0 0.0 0.0 0.0 0.0 0.0 0.0 0.0 0.0 0.0 0.0 0.0 0.0 0.0 0.0 0.0 0.0 0.0 0.0 0.0 0.0 394.307721091 0.0 0.0 0.0 0.0 0.0 519.013301055 0.0 0.0 0.0 0.0 0.0 0.0 0.0 0.0 0.0 0.0 0.0 0.0 0.0 0.0 0.0 0.0 0.0 0.0 0.0 0.0 0.0 0.0 0.0 0.0 0.0 0.0 0.0 0.0 0.0 0.0 472.38696349 0.0 0.0 0.0 0.0 457.296480386 0.0 0.0 0.0 0.0 0.0 0.0 0.0 0.0 0.0 0.0 0.0 0.0 0.0 0.0 0.0 0.0 0.0 0.0 0.0 0.0 0.0 0.0 0.0 0.0 0.0 0.0 0.0 0.0 0.0 0.0 517.060436016 0.0 0.0 0.0 0.0 0.0 379.705581081 0.0 0.0 0.0 0.0 0.0 0.0 0.0 0.0 0.0 0.0 0.0 0.0 0.0 0.0 0.0 0.0 0.0 0.0 0.0 0.0 0.0 0.0 0.0 0.0 0.0 0.0 0.0 0.0 0.0 0.0 316.02720562 0.0 0.0 0.0 0.0 582.820995881 0.0 0.0 0.0 0.0 0.0 0.0 0.0 0.0 0.0 0.0 0.0 0.0 0.0 0.0 0.0 0.0 0.0 0.0 0.0 0.0 0.0 0.0 0.0 0.0 0.0 0.0 0.0 0.0 0.0 0.0 601.244910576 0.0 0.0 0.0 0.0 0.0 177.175825652 0.0 0.0 0.0 0.0 0.0 0.0 0.0 0.0 0.0 0.0 0.0 0.0 0.0 0.0 0.0 0.0 0.0 0.0 0.0 0.0 0.0 0.0 0.0 0.0 0.0 0.0 0.0 0.0 0.0 0.0 102.717096024 0.0 0.0 0.0 0.0 618.173581388 0.0 0.0 0.0 0.0 0.0 0.0 0.0 0.0 0.0 0.0 0.0 0.0 0.0 0.0 0.0 0.0 0.0 0.0 0.0 0.0 0.0 0.0 0.0 0.0 0.0 0.0 0.0 0.0 0.0 0.0 624.766555991 0.0 0.0 0.0 0.0 113.688417815 0.0 0.0 0.0 0.0 0.0 0.0 0.0 0.0 0.0 0.0 0.0 0.0 0.0 0.0 0.0 0.0 0.0 0.0 0.0 0.0 0.0 0.0 0.0 0.0 0.0 0.0 0.0 0.0 0.0 0.0 140.094175031 591.510601672 624.875038319 595.634255601 549.707967682 521.275531302 545.175364649 578.576284904 599.120513583 611.870499862 617.507539479 619.795412697 621.641326889 623.558309152 624.369250813 624.760291307 624.823244834 624.909843652 624.958541589 624.985376148 624.999858156 624.981427282 624.970152355 624.970152355 624.955521959 624.906000594 624.877827928 624.877827928 624.877827928 624.877827928 624.877827928 624.877827928 624.877827928 624.877827928 624.877827928 624.877827928 </DataArray>