<?xml version="1.0" ?>
<VTKFile byte_order="LittleEndian" type="UnstructuredGrid" version="0.1">
<UnstructuredGrid>
<Piece NumberOfCells="0" NumberOfPoints="301">
<Points>
<DataArray NumberOfComponents="3" format="ascii" type="Float32">50.0 50.0 50.0 50.0 50.0 50.0 50.0 50.0 50.0 50.0 50.0 50.0 15.696194754 15.696194754 15.696194754 0.0 0.0 0.0 0.0 0.0 0.0 0.0 0.0 0.0 0.0 0.0 0.0 0.0 0.0 0.0 0.0 0.0 0.0 0.0 0.0 0.0 0.0 0.0 0.0 0.0 0.0 0.0 0.0 0.0 0.0 0.0 0.0 0.0 0.0 0.0 0.0 0.0 0.0 0.0 0.0 0.0 0.0 0.0 0.0 0.0 0.0 0.0 0.0 0.0 0.0 0.0 0.0 0.0 0.0 0.0 0.0 0.0 0.0 0.0 0.0 0.0 0.0 0.0 0.0 0.0 0.0 0.0 0.0 0.0 -9.881981531 -9.881981531 -9.881981531 50.0 50.0 50.0 50.0 50.0 50.0 50.0 50.0 50.0 50.0 50.0 50.0 -8.58030180465 -8.58030180465 -8.58030180465 0.0 0.0 0.0 0.0 0.0 0.0 0.0 0.0 0.0 0.0 0.0 0.0 0.0 0.0 0.0 0.0 0.0 0.0 0.0 0.0 0.0 0.0 0.0 0.0 0.0 0.0 0.0 0.0 0.0 0.0 0.0 0.0 0.0 0.0 0.0 0.0 0.0 0.0 0.0 0.0 0.0 0.0 0.0 0.0 0.0 0.0 0.0 0.0 0.0 0.0 0.0 0.0 0.0 0.0 0.0 0.0 0.0 0.0 0.0 0.0 0.0 0.0 0.0 0.0 0.0 0.0 0.0 0.0 0.0 29.0349885807 29.0349885807 29.0349885807 50.0 50.0 50.0 50.0 50.0 50.0 50.0 50.0 50.0 -5.66228651467 -5.66228651467 -5.66228651467 0.0 0.0 0.0 0.0 0.0 0.0 0.0 0.0 0.0 0.0 0.0 0.0 0.0 0.0 0.0 0.0 0.0 0.0 0.0 0.0 0.0 0.0 0.0 0.0 0.0 0.0 0.0 0.0 0.0 0.0 0.0 0.0 0.0 0.0 0.0 0.0 0.0 0.0 0.0 0.0 0.0 0.0 0.0 0.0 0.0 0.0 0.0 0.0 0.0 0.0 0.0 0.0 0.0 0.0 0.0 0.0 0.0 0.0 0.0 0.0 0.0 0.0 0.0 0.0 0.0 0.0 0.0 0.0 0.0 3.81435641705 3.81435641705 3.81435641705 50.0 50.0 50.0 50.0 50.0 50.0 50.0 50.0 50.0 9.4111808769 9.4111808769 9.4111808769 0.0 0.0 0.0 0.0 0.0 0.0 0.0 0.0 0.0 0.0 0.0 0.0 0.0 0.0 0.0 0.0 0.0 0.0 0.0 0.0 0.0 0.0 0.0 0.0 0.0 0.0 0.0 0.0 0.0 0.0 0.0 0.0 0.0 0.0 0.0 0.0 0.0 0.0 0.0 0.0 0.0 0.0 0.0 0.0 0.0 0.0 0.0 0.0 0.0 0.0 0.0 0.0 0.0 0.0 0.0 0.0 0.0 0.0 0.0 0.0 0.0 0.0 0.0 0.0 0.0 0.0 0.0 0.0 0.0 -8.33696511136 -8.33696511136 -8.33696511136 50.0 50.0 50.0 50.0 50.0 50.0 50.0 50.0 50.0 39.9771915711 39.9771915711 39.9771915711 0.0 0.0 0.0 0.0 0.0 0.0 0.0 0.0 0.0 0.0 0.0 0.0 0.0 0.0 0.0 0.0 0.0 0.0 0.0 0.0 0.0 0.0 0.0 0.0 0.0 0.0 0.0 0.0 0.0 0.0 0.0 0.0 0.0 0.0 0.0 0.0 0.0 0.0 0.0 0.0 0.0 0.0 0.0 0.0 0.0 0.0 0.0 0.0 0.0 0.0 0.0 0.0 0.0 0.0 0.0 0.0 0.0 0.0 0.0 0.0 0.0 0.0 0.0 0.0 0.0 0.0 0.0 0.0 0.0 0.0 0.0 0.0 39.7326419654 39.7326419654 39.7326419654 50.0 50.0 50.0 50.0 50.0 50.0 50.0 50.0 50.0 -7.68502448908 -7.68502448908 -7.68502448908 0.0 0.0 0.0 0.0 0.0 0.0 0.0 0.0 0.0 0.0 0.0 0.0 0.0 0.0 0.0 0.0 0.0 0.0 0.0 0.0 0.0 0.0 0.0 0.0 0.0 0.0 0.0 0.0 0.0 0.0 0.0 0.0 0.0 0.0 0.0 0.0 0.0 0.0 0.0 0.0 0.0 0.0 0.0 0.0 0.0 0.0 0.0 0.0 0.0 0.0 0.0 0.0 0.0 0.0 0.0 0.0 0.0 0.0 0.0 0.0 0.0 0.0 0.0 0.0 0.0 0.0 0.0 0.0 0.0 10.4873270137 10.4873270137 10.4873270137 50.0 50.0 50.0 50.0 50.0 50.0 50.0 50.0 50.0 5.75849728443 5.75849728443 5.75849728443 0.0 0.0 0.0 0.0 0.0 0.0 0.0 0.0 0.0 0.0 0.0 0.0 0.0 0.0 0.0 0.0 0.0 0.0 0.0 0.0 0.0 0.0 0.0 0.0 0.0 0.0 0.0 0.0 0.0 0.0 0.0 0.0 0.0 0.0 0.0 0.0 0.0 0.0 0.0 0.0 0.0 0.0 0.0 0.0 0.0 0.0 0.0 0.0 0.0 0.0 0.0 0.0 0.0 0.0 0.0 0.0 0.0 0.0 0.0 0.0 0.0 0.0 0.0 0.0 0.0 0.0 0.0 0.0 0.0 -6.26026411351 -6.26026411351 -6.26026411351 50.0 50.0 50.0 50.0 50.0 50.0 50.0 50.0 50.0 30.8178373283 30.8178373283 30.8178373283 0.0 0.0 0.0 0.0 0.0 0.0 0.0 0.0 0.0 0.0 0.0 0.0 0.0 0.0 0.0 0.0 0.0 0.0 0.0 0.0 0.0 0.0 0.0 0.0 0.0 0.0 0.0 0.0 0.0 0.0 0.0 0.0 0.0 0.0 0.0 0.0 0.0 0.0 0.0 0.0 0.0 0.0 0.0 0.0 0.0 0.0 0.0 0.0 0.0 0.0 0.0 0.0 0.0 0.0 0.0 0.0 0.0 0.0 0.0 0.0 0.0 0.0 0.0 0.0 0.0 0.0 0.0 0.0 0.0 -7.90687800627 -7.90687800627 -7.90687800627 50.0 50.0 50.0 50.0 50.0 50.0 50.0 50.0 50.0 50.0 50.0 50.0 -9.67280385507 -9.67280385507 -9.67280385507 0.0 0.0 0.0 0.0 0.0 0.0 0.0 0.0 0.0 0.0 0.0 0.0 0.0 0.0 0.0 0.0 0.0 0.0 0.0 0.0 0.0 0.0 0.0 0.0 0.0 0.0 0.0 0.0 0.0 0.0 0.0 0.0 0.0 0.0 0.0 0.0 0.0 0.0 0.0 0.0 0.0 0.0 0.0 0.0 0.0 0.0 0.0 0.0 0.0 0.0 0.0 0.0 0.0 0.0 0.0 0.0 0.0 0.0 0.0 0.0 0.0 0.0 0.0 0.0 0.0 0.0 0.0 0.0 0.0 15.6746672587 15.6746672587 15.6746672587 50.0 50.0 50.0 50.0 50.0 50.0 50.0 50.0 50.0 1.56321809186 1.56321809186 1.56321809186 0.0 0.0 0.0 0.0 0.0 0.0 0.0 0.0 0.0 0.0 0.0 0.0 0.0 0.0 0.0 0.0 0.0 0.0 0.0 0.0 0.0 0.0 0.0 0.0 0.0 0.0 0.0 0.0 0.0 0.0 0.0 0.0 0.0 0.0 0.0 0.0 0.0 0.0 0.0 0.0 0.0 0.0 0.0 0.0 0.0 0.0 0.0 0.0 0.0 0.0 0.0 0.0 0.0 0.0 0.0 0.0 0.0 0.0 0.0 0.0 0.0 0.0 0.0 0.0 0.0 0.0 0.0 0.0 0.0 -9.61478095602 -9.61478095602 -9.61478095602 1.05736624199 1.05736624199 1.05736624199 7.15345861939 7.15345861939 7.15345861939 12.0456683196 12.0456683196 12.0456683196 13.0717099758 13.0717099758 13.0717099758 8.64904852408 8.64904852408 8.64904852408 6.20734203498 6.20734203498 6.20734203498 4.77929274909 4.77929274909 4.77929274909 3.5692846498 3.5692846498 3.5692846498 3.12559906665 3.12559906665 3.12559906665 2.94198656172 2.94198656172 2.94198656172 2.84518037476 2.84518037476 2.84518037476 2.42116912649 2.42116912649 2.42116912649 2.29779584736 2.29779584736 2.29779584736 1.67297760521 1.67297760521 1.67297760521 1.37711702214 1.37711702214 1.37711702214 1.13195840487 1.13195840487 1.13195840487 1.02593852089 1.02593852089 1.02593852089 </DataArray>
</Points>
<PointData>
<DataArray Name="Points" format="ascii" type="Float32">50.0 50.0 50.0 50.0 50.0 50.0 50.0 50.0 50.0 50.0 50.0 50.0 15.696194754 15.696194754 15.696194754 0.0 0.0 0.0 0.0 0.0 0.0 0.0 0.0 0.0 0.0 0.0 0.0 0.0 0.0 0.0 0.0 0.0 0.0 0.0 0.0 0.0 0.0 0.0 0.0 0.0 0.0 0.0 0.0 0.0 0.0 0.0 0.0 0.0 0.0 0.0 0.0 0.0 0.0 0.0 0.0 0.0 0.0 0.0 0.0 0.0 0.0 0.0 0.0 0.0 0.0 0.0 0.0 0.0 0.0 0.0 0.0 0.0 0.0 0.0 0.0 0.0 0.0 0.0 0.0 0.0 0.0 0.0 0.0 0.0 -9.881981531 -9.881981531 -9.881981531 50.0 50.0 50.0 50.0 50.0 50.0 50.0 50.0 50.0 50.0 50.0 50.0 -8.58030180465 -8.58030180465 -8.58030180465 0.0 0.0 0.0 0.0 0.0 0.0 0.0 0.0 0.0 0.0 0.0 0.0 0.0 0.0 0.0 0.0 0.0 0.0 0.0 0.0 0.0 0.0 0.0 0.0 0.0 0.0 0.0 0.0 0.0 0.0 0.0 0.0 0.0 0.0 0.0 0.0 0.0 0.0 0.0 0.0 0.0 0.0 0.0 0.0 0.0 0.0 0.0 0.0 0.0 0.0 0.0 0.0 0.0 0.0 0.0 0.0 0.0 0.0 0.0 0.0 0.0 0.0 0.0 0.0 0.0 0.0 0.0 0.0 0.0 29.0349885807 29.0349885807 29.0349885807 50.0 50.0 50.0 50.0 50.0 50.0 50.0 50.0 50.0 -5.66228651467 -5.66228651467 -5.66228651467 0.0 0.0 0.0 0.0 0.0 0.0 0.0 0.0 0.0 0.0 0.0 0.0 0.0 0.0 0.0 0.0 0.0 0.0 0.0 0.0 0.0 0.0 0.0 0.0 0.0 0.0 0.0 0.0 0.0 0.0 0.0 0.0 0.0 0.0 0.0 0.0 0.0 0.0 0.0 0.0 0.0 0.0 0.0 0.0 0.0 0.0 0.0 0.0 0.0 0.0 0.0 0.0 0.0 0.0 0.0 0.0 0.0 0.0 0.0 0.0 0.0 0.0 0.0 0.0 0.0 0.0 0.0 0.0 0.0 3.81435641705 3.81435641705 3.81435641705 50.0 50.0 50.0 50.0 50.0 50.0 50.0 50.0 50.0 9.4111808769 9.4111808769 9.4111808769 0.0 0.0 0.0 0.0 0.0 0.0 0.0 0.0 0.0 0.0 0.0 0.0 0.0 0.0 0.0 0.0 0.0 0.0 0.0 0.0 0.0 0.0 0.0 0.0 0.0 0.0 0.0 0.0 0.0 0.0 0.0 0.0 0.0 0.0 0.0 0.0 0.0 0.0 0.0 0.0 0.0 0.0 0.0 0.0 0.0 0.0 0.0 0.0 0.0 0.0 0.0 0.0 0.0 0.0 0.0 0.0 0.0 0.0 0.0 0.0 0.0 0.0 0.0 0.0 0.0 0.0 0.0 0.0 0.0 -8.33696511136 -8.33696511136 -8.33696511136 50.0 50.0 50.0 50.0 50.0 50.0 50.0 50.0 50.0 39.9771915711 39.9771915711 39.9771915711 0.0 0.0 0.0 0.0 0.0 0.0 0.0 0.0 0.0 0.0 0.0 0.0 0.0 0.0 0.0 0.0 0.0 0.0 0.0 0.0 0.0 0.0 0.0 0.0 0.0 0.0 0.0 0.0 0.0 0.0 0.0 0.0 0.0 0.0 0.0 0.0 0.0 0.0 0.0 0.0 0.0 0.0 0.0 0.0 0.0 0.0 0.0 0.0 0.0 0.0 0.0 0.0 0.0 0.0 0.0 0.0 0.0 0.0 0.0 0.0 0.0 0.0 0.0 0.0 0.0 0.0 0.0 0.0 0.0 0.0 0.0 0.0 39.7326419654 39.7326419654 39.7326419654 50.0 50.0 50.0 50.0 50.0 50.0 50.0 50.0 50.0 -7.68502448908 -7.68502448908 -7.68502448908 0.0 0.0 0.0 0.0 0.0 0.0 0.0 0.0 0.0 0.0 0.0 0.0 0.0 0.0 0.0 0.0 0.0 0.0 0.0 0.0 0.0 0.0 0.0 0.0 0.0 0.0 0.0 0.0 0.0 0.0 0.0 0.0 0.0 0.0 0.0 0.0 0.0 0.0 0.0 0.0 0.0 0.0 0.0 0.0 0.0 0.0 0.0 0.0 0.0 0.0 0.0 0.0 0.0 0.0 0.0 0.0 0.0 0.0 0.0 0.0 0.0 0.0 0.0 0.0 0.0 0.0 0.0 0.0 0.0 10.4873270137 10.4873270137 10.4873270137 50.0 50.0 50.0 50.0 50.0 50.0 50.0 50.0 50.0 5.75849728443 5.75849728443 5.75849728443 0.0 0.0 0.0 0.0 0.0 0.0 0.0 0.0 0.0 0.0 0.0 0.0 0.0 0.0 0.0 0.0 0.0 0.0 0.0 0.0 0.0 0.0 0.0 0.0 0.0 0.0 0.0 0.0 0.0 0.0 0.0 0.0 0.0 0.0 0.0 0.0 0.0 0.0 0.0 0.0 0.0 0.0 0.0 0.0 0.0 0.0 0.0 0.0 0.0 0.0 0.0 0.0 0.0 0.0 0.0 0.0 0.0 0.0 0.0 0.0 0.0 0.0 0.0 0.0 0.0 0.0 0.0 0.0 0.0 -6.26026411351 -6.26026411351 -6.26026411351 50.0 50.0 50.0 50.0 50.0 50.0 50.0 50.0 50.0 30.8178373283 30.8178373283 30.8178373283 0.0 0.0 0.0 0.0 0.0 0.0 0.0 0.0 0.0 0.0 0.0 0.0 0.0 0.0 0.0 0.0 0.0 0.0 0.0 0.0 0.0 0.0 0.0 0.0 0.0 0.0 0.0 0.0 0.0 0.0 0.0 0.0 0.0 0.0 0.0 0.0 0.0 0.0 0.0 0.0 0.0 0.0 0.0 0.0 0.0 0.0 0.0 0.0 0.0 0.0 0.0 0.0 0.0 0.0 0.0 0.0 0.0 0.0 0.0 0.0 0.0 0.0 0.0 0.0 0.0 0.0 0.0 0.0 0.0 -7.90687800627 -7.90687800627 -7.90687800627 50.0 50.0 50.0 50.0 50.0 50.0 50.0 50.0 50.0 50.0 50.0 50.0 -9.67280385507 -9.67280385507 -9.67280385507 0.0 0.0 0.0 0.0 0.0 0.0 0.0 0.0 0.0 0.0 0.0 0.0 0.0 0.0 0.0 0.0 0.0 0.0 0.0 0.0 0.0 0.0 0.0 0.0 0.0 0.0 0.0 0.0 0.0 0.0 0.0 0.0 0.0 0.0 0.0 0.0 0.0 0.0 0.0 0.0 0.0 0.0 0.0 0.0 0.0 0.0 0.0 0.0 0.0 0.0 0.0 0.0 0.0 0.0 0.0 0.0 0.0 0.0 0.0 0.0 0.0 0.0 0.0 0.0 0.0 0.0 0.0 0.0 0.0 15.6746672587 15.6746672587 15.6746672587 50.0 50.0 50.0 50.0 50.0 50.0 50.0 50.0 50.0 1.56321809186 1.56321809186 1.56321809186 0.0 0.0 0.0 0.0 0.0 0.0 0.0 0.0 0.0 0.0 0.0 0.0 0.0 0.0 0.0 0.0 0.0 0.0 0.0 0.0 0.0 0.0 0.0 0.0 0.0 0.0 0.0 0.0 0.0 0.0 0.0 0.0 0.0 0.0 0.0 0.0 0.0 0.0 0.0 0.0 0.0 0.0 0.0 0.0 0.0 0.0 0.0 0.0 0.0 0.0 0.0 0.0 0.0 0.0 0.0 0.0 0.0 0.0 0.0 0.0 0.0 0.0 0.0 0.0 0.0 0.0 0.0 0.0 0.0 -9.61478095602 -9.61478095602 -9.61478095602 1.05736624199 1.05736624199 1.05736624199 7.15345861939 7.15345861939 7.15345861939 12.0456683196 12.0456683196 12.0456683196 13.0717099758 13.0717099758 13.0717099758 8.64904852408 8.64904852408 8.64904852408 6.20734203498 6.20734203498 6.20734203498 4.77929274909 4.77929274909 4.77929274909 3.5692846498 3.5692846498 3.5692846498 3.12559906665 3.12559906665 3.12559906665 2.94198656172 2.94198656172 2.94198656172 2.84518037476 2.84518037476 2.84518037476 2.42116912649 2.42116912649 2.42116912649 2.29779584736 2.29779584736 2.29779584736 1.67297760521 1.67297760521 1.67297760521 1.37711702214 1.37711702214 1.37711702214 1.13195840487 1.13195840487 1.13195840487 1.02593852089 1.02593852089 1.02593852089 </DataArray>
<DataArray Name="function -1 stddev" format="ascii" type="Float32">50.0 50.0 50.0 50.0 15.696194754 0.0 0.0 0.0 0.0 0.0 0.0 0.0 0.0 0.0 0.0 0.0 0.0 0.0 0.0 0.0 0.0 0.0 0.0 0.0 0.0 0.0 0.0 0.0 -9.881981531 50.0 50.0 50.0 50.0 -8.58030180465 0.0 0.0 0.0 0.0 0.0 0.0 0.0 0.0 0.0 0.0 0.0 0.0 0.0 0.0 0.0 0.0 0.0 0.0 0.0 0.0 0.0 0.0 0.0 29.0349885807 50.0 50.0 50.0 -5.66228651467 0.0 0.0 0.0 0.0 0.0 0.0 0.0 0.0 0.0 0.0 0.0 0.0 0.0 0.0 0.0 0.0 0.0 0.0 0.0 0.0 0.0 0.0 0.0 3.81435641705 50.0 50.0 50.0 9.4111808769 0.0 0.0 0.0 0.0 0.0 0.0 0.0 0.0 0.0 0.0 0.0 0.0 0.0 0.0 0.0 0.0 0.0 0.0 0.0 0.0 0.0 0.0 0.0 -8.33696511136 50.0 50.0 50.0 39.9771915711 0.0 0.0 0.0 0.0 0.0 0.0 0.0 0.0 0.0 0.0 0.0 0.0 0.0 0.0 0.0 0.0 0.0 0.0 0.0 0.0 0.0 0.0 0.0 0.0 39.7326419654 50.0 50.0 50.0 -7.68502448908 0.0 0.0 0.0 0.0 0.0 0.0 0.0 0.0 0.0 0.0 0.0 0.0 0.0 0.0 0.0 0.0 0.0 0.0 0.0 0.0 0.0 0.0 0.0 10.4873270137 50.0 50.0 50.0 5.75849728443 0.0 0.0 0.0 0.0 0.0 0.0 0.0 0.0 0.0 0.0 0.0 0.0 0.0 0.0 0.0 0.0 0.0 0.0 0.0 0.0 0.0 0.0 0.0 -6.26026411351 50.0 50.0 50.0 30.8178373283 0.0 0.0 0.0 0.0 0.0 0.0 0.0 0.0 0.0 0.0 0.0 0.0 0.0 0.0 0.0 0.0 0.0 0.0 0.0 0.0 0.0 0.0 0.0 -7.90687800627 50.0 50.0 50.0 50.0 -9.67280385507 0.0 0.0 0.0 0.0 0.0 0.0 0.0 0.0 0.0 0.0 0.0 0.0 0.0 0.0 0.0 0.0 0.0 0.0 0.0 0.0 0.0 0.0 0.0 15.6746672587 50.0 50.0 50.0 1.56321809186 0.0 0.0 0.0 0.0 0.0 0.0 0.0 0.0 0.0 0.0 0.0 0.0 0.0 0.0 0.0 0.0 0.0 0.0 0.0 0.0 0.0 0.0 0.0 -9.61478095602 1.05736624199 7.15345861939 12.0456683196 13.0717099758 8.64904852408 6.20734203498 4.77929274909 3.5692846498 3.12559906665 2.94198656172 2.84518037476 2.42116912649 2.29779584736 1.67297760521 1.37711702214 1.13195840487 1.02593852089 </DataArray>
<DataArray Name="function +1 stddev" format="ascii" type="Float32">50.0 50.0 50.0 50.0 59.1092246752 0.0 0.0 0.0 0.0 0.0 0.0 0.0 0.0 0.0 0.0 0.0 0.0 0.0 0.0 0.0 0.0 0.0 0.0 0.0 0.0 0.0 0.0 0.0 30.7660527635 50.0 50.0 50.0 50.0 13.9382040017 0.0 0.0 0.0 0.0 0.0 0.0 0.0 0.0 0.0 0.0 0.0 0.0 0.0 0.0 0.0 0.0 0.0 0.0 0.0 0.0 0.0 0.0 0.0 60.1243344016 50.0 50.0 50.0 42.6018233627 0.0 0.0 0.0 0.0 0.0 0.0 0.0 0.0 0.0 0.0 0.0 0.0 0.0 0.0 0.0 0.0 0.0 0.0 0.0 0.0 0.0 0.0 0.0 53.3049201726 50.0 50.0 50.0 56.7330855472 0.0 0.0 0.0 0.0 0.0 0.0 0.0 0.0 0.0 0.0 0.0 0.0 0.0 0.0 0.0 0.0 0.0 0.0 0.0 0.0 0.0 0.0 0.0 36.7748357595 50.0 50.0 50.0 57.0262975169 0.0 0.0 0.0 0.0 0.0 0.0 0.0 0.0 0.0 0.0 0.0 0.0 0.0 0.0 0.0 0.0 0.0 0.0 0.0 0.0 0.0 0.0 0.0 0.0 57.1395280102 50.0 50.0 50.0 38.479212668 0.0 0.0 0.0 0.0 0.0 0.0 0.0 0.0 0.0 0.0 0.0 0.0 0.0 0.0 0.0 0.0 0.0 0.0 0.0 0.0 0.0 0.0 0.0 57.2394528923 50.0 50.0 50.0 54.6608255658 0.0 0.0 0.0 0.0 0.0 0.0 0.0 0.0 0.0 0.0 0.0 0.0 0.0 0.0 0.0 0.0 0.0 0.0 0.0 0.0 0.0 0.0 0.0 41.5165337633 50.0 50.0 50.0 59.8733819527 0.0 0.0 0.0 0.0 0.0 0.0 0.0 0.0 0.0 0.0 0.0 0.0 0.0 0.0 0.0 0.0 0.0 0.0 0.0 0.0 0.0 0.0 0.0 12.0718377222 50.0 50.0 50.0 50.0 31.913513783 0.0 0.0 0.0 0.0 0.0 0.0 0.0 0.0 0.0 0.0 0.0 0.0 0.0 0.0 0.0 0.0 0.0 0.0 0.0 0.0 0.0 0.0 0.0 59.1033454263 50.0 50.0 50.0 51.4710644627 0.0 0.0 0.0 0.0 0.0 0.0 0.0 0.0 0.0 0.0 0.0 0.0 0.0 0.0 0.0 0.0 0.0 0.0 0.0 0.0 0.0 0.0 0.0 32.198398389 51.0144246281 55.5205006635 57.896584788 58.2823661584 56.3471910357 54.9472203486 54.0021205823 53.1198228938 52.7760793455 52.6304911856 52.5529302865 52.2065506153 52.1036884319 51.5678381919 51.3051211709 51.0828792585 50.98546471 </DataArray>
<DataArray Name="function coefficient of variation" format="ascii" type="Float32">0.0 0.0 0.0 0.0 0.0 0.0 0.0 0.0 0.0 0.0 0.0 0.0 0.0 0.0 0.0 0.0 0.0 0.0 0.0 0.0 0.0 0.0 0.0 0.0 0.0 0.0 0.0 0.0 0.0 0.0 0.0 0.0 0.0 0.0 0.0 0.0 0.0 0.0 0.0 0.0 0.0 0.0 0.0 0.0 0.0 0.0 0.0 0.0 0.0 0.0 0.0 0.0 0.0 0.0 0.0 0.0 0.0 0.0 0.0 0.0 0.0 0.0 0.0 0.0 0.0 0.0 0.0 0.0 0.0 0.0 0.0 0.0 0.0 0.0 0.0 0.0 0.0 0.0 0.0 0.0 0.0 0.0 0.0 0.0 0.0 0.0 0.0 0.0 0.0 0.0 0.0 0.0 0.0 0.0 0.0 0.0 0.0 0.0 0.0 0.0 0.0 0.0 0.0 0.0 0.0 0.0 0.0 0.0 0.0 0.0 0.0 0.0 0.0 0.0 0.0 0.0 0.0 0.0 0.0 0.0 0.0 0.0 0.0 0.0 0.0 0.0 0.0 0.0 0.0 0.0 0.0 0.0 0.0 0.0 0.0 0.0 0.0 0.0 0.0 0.0 0.0 0.0 0.0 0.0 0.0 0.0 0.0 0.0 0.0 0.0 0.0 0.0 0.0 0.0 0.0 0.0 0.0 0.0 0.0 0.0 0.0 0.0 0.0 0.0 0.0 0.0 0.0 0.0 0.0 0.0 0.0 0.0 0.0 0.0 0.0 0.0 0.0 0.0 0.0 0.0 0.0 0.0 0.0 0.0 0.0 0.0 0.0 0.0 0.0 0.0 0.0 0.0 0.0 0.0 0.0 0.0 0.0 0.0 0.0 0.0 0.0 0.0 0.0 0.0 0.0 0.0 0.0 0.0 0.0 0.0 0.0 0.0 0.0 0.0 0.0 0.0 0.0 0.0 0.0 0.0 0.0 0.0 0.0 0.0 0.0 0.0 0.0 0.0 0.0 0.0 0.0 0.0 0.0 0.0 0.0 0.0 0.0 0.0 0.0 0.0 0.0 0.0 0.0 0.0 0.0 0.0 0.0 0.0 0.0 0.0 0.0 0.0 0.0 0.0 0.0 0.0 0.0 0.0 0.0 0.0 0.0 0.0 0.0 0.0 0.0 0.0 0.0 0.0 0.0 0.0 0.0 0.0 0.0 0.0 0.0 0.0 0.0 0.0 0.0 0.0 0.0 0.0 0.0 0.0 0.0 0.0 0.0 0.0 0.0 0.0 0.0 0.0 0.0 0.0 0.0 0.0 0.0 0.0 0.0 0.0 0.0 </DataArray>
<DataArray Name="time" format="ascii" type="Float32">0.0 3.53255618154 7.06511236307 10.5976685446 14.1302247261 17.6627809077 21.1953370892 24.7278932708 28.2604494523 31.7930056338 35.3255618154 38.8581179969 42.3906741784 45.92323036 49.4557865415 52.988342723 56.5208989046 60.0534550861 63.5860112676 67.1185674492 70.6511236307 74.1836798123 77.7162359938 81.2487921753 84.7813483569 88.3139045384 91.8464607199 95.3790169015 98.911573083 102.444129265 105.976685446 109.509241628 113.041797809 116.574353991 120.106910172 123.639466354 127.172022535 130.704578717 134.237134898 137.76969108 141.302247261 144.834803443 148.367359625 151.899915806 155.432471988 158.965028169 162.497584351 166.030140532 169.562696714 173.095252895 176.627809077 180.160365258 183.69292144 187.225477621 190.758033803 194.290589984 197.823146166 201.355702348 204.888258529 208.420814711 211.953370892 215.485927074 219.018483255 222.551039437 226.083595618 229.6161518 233.148707981 236.681264163 240.213820344 243.746376526 247.278932708 250.811488889 254.344045071 257.876601252 261.409157434 264.941713615 268.474269797 272.006825978 275.53938216 279.071938341 282.604494523 286.137050704 289.669606886 293.202163067 296.734719249 300.267275431 303.799831612 307.332387794 310.864943975 314.397500157 317.930056338 321.46261252 324.995168701 328.527724883 332.060281064 335.592837246 339.125393427 342.657949609 346.190505791 349.723061972 353.255618154 356.788174335 360.320730517 363.853286698 367.38584288 370.918399061 374.450955243 377.983511424 381.516067606 385.048623787 388.581179969 392.11373615 395.646292332 399.178848514 402.711404695 406.243960877 409.776517058 413.30907324 416.841629421 420.374185603 423.906741784 427.439297966 430.971854147 434.504410329 438.03696651 441.569522692 445.102078874 448.634635055 452.167191237 455.699747418 459.2323036 462.764859781 466.297415963 469.829972144 473.362528326 476.895084507 480.427640689 483.96019687 487.492753052 491.025309233 494.557865415 498.090421597 501.622977778 505.15553396 508.688090141 512.220646323 515.753202504 519.285758686 522.818314867 526.350871049 529.88342723 533.415983412 536.948539593 540.481095775 544.013651957 547.546208138 551.07876432 554.611320501 558.143876683 561.676432864 565.208989046 568.741545227 572.274101409 575.80665759 579.339213772 582.871769953 586.404326135 589.936882316 593.469438498 597.00199468 600.534550861 604.067107043 607.599663224 611.132219406 614.664775587 618.197331769 621.72988795 625.262444132 628.795000313 632.327556495 635.860112676 639.392668858 642.92522504 646.457781221 649.990337403 653.522893584 657.055449766 660.588005947 664.120562129 667.65311831 671.185674492 674.718230673 678.250786855 681.783343036 685.315899218 688.8484554 692.381011581 695.913567763 699.446123944 702.978680126 706.511236307 710.043792489 713.57634867 717.108904852 720.641461033 724.174017215 727.706573396 731.239129578 734.771685759 738.304241941 741.836798123 745.369354304 748.901910486 752.434466667 755.967022849 759.49957903 763.032135212 766.564691393 770.097247575 773.629803756 777.162359938 780.694916119 784.227472301 787.760028483 791.292584664 794.825140846 798.357697027 801.890253209 805.42280939 808.955365572 812.487921753 816.020477935 819.553034116 823.085590298 826.618146479 830.150702661 833.683258842 837.215815024 840.748371206 844.280927387 847.813483569 851.34603975 854.878595932 858.411152113 861.943708295 865.476264476 869.008820658 872.541376839 876.073933021 879.606489202 883.139045384 886.671601566 890.204157747 893.736713929 897.26927011 900.801826292 904.334382473 907.866938655 911.399494836 914.932051018 918.464607199 921.997163381 925.529719562 929.062275744 932.594831925 936.127388107 939.659944289 943.19250047 946.725056652 950.257612833 953.790169015 957.322725196 960.855281378 964.387837559 967.920393741 971.452949922 974.985506104 978.518062285 982.050618467 985.583174649 989.11573083 992.648287012 996.180843193 999.713399375 1003.24595556 1006.77851174 1010.31106792 1013.8436241 1017.37618028 1020.90873646 1024.44129265 1027.97384883 1031.50640501 1035.03896119 1038.57151737 1042.10407355 1045.63662973 1049.16918592 1052.7017421 1056.23429828 1059.76685446 </DataArray>
<DataArray Name="function variance" format="ascii" type="Float32">0.0 0.0 0.0 0.0 471.172791735 0.0 0.0 0.0 0.0 0.0 0.0 0.0 0.0 0.0 0.0 0.0 0.0 0.0 0.0 0.0 0.0 0.0 0.0 0.0 0.0 0.0 0.0 0.0 413.065673001 0.0 0.0 0.0 0.0 126.770775937 0.0 0.0 0.0 0.0 0.0 0.0 0.0 0.0 0.0 0.0 0.0 0.0 0.0 0.0 0.0 0.0 0.0 0.0 0.0 0.0 0.0 0.0 0.0 241.636855893 0.0 0.0 0.0 582.356075564 0.0 0.0 0.0 0.0 0.0 0.0 0.0 0.0 0.0 0.0 0.0 0.0 0.0 0.0 0.0 0.0 0.0 0.0 0.0 0.0 0.0 0.0 0.0 612.32897521 0.0 0.0 0.0 559.840665407 0.0 0.0 0.0 0.0 0.0 0.0 0.0 0.0 0.0 0.0 0.0 0.0 0.0 0.0 0.0 0.0 0.0 0.0 0.0 0.0 0.0 0.0 0.0 508.768644454 0.0 0.0 0.0 72.6680033874 0.0 0.0 0.0 0.0 0.0 0.0 0.0 0.0 0.0 0.0 0.0 0.0 0.0 0.0 0.0 0.0 0.0 0.0 0.0 0.0 0.0 0.0 0.0 0.0 75.7499204442 0.0 0.0 0.0 532.784198073 0.0 0.0 0.0 0.0 0.0 0.0 0.0 0.0 0.0 0.0 0.0 0.0 0.0 0.0 0.0 0.0 0.0 0.0 0.0 0.0 0.0 0.0 0.0 546.440318541 0.0 0.0 0.0 597.859427835 0.0 0.0 0.0 0.0 0.0 0.0 0.0 0.0 0.0 0.0 0.0 0.0 0.0 0.0 0.0 0.0 0.0 0.0 0.0 0.0 0.0 0.0 0.0 570.65560384 0.0 0.0 0.0 211.056168356 0.0 0.0 0.0 0.0 0.0 0.0 0.0 0.0 0.0 0.0 0.0 0.0 0.0 0.0 0.0 0.0 0.0 0.0 0.0 0.0 0.0 0.0 0.0 99.7872705402 0.0 0.0 0.0 0.0 432.355453673 0.0 0.0 0.0 0.0 0.0 0.0 0.0 0.0 0.0 0.0 0.0 0.0 0.0 0.0 0.0 0.0 0.0 0.0 0.0 0.0 0.0 0.0 0.0 471.512521846 0.0 0.0 0.0 622.698282345 0.0 0.0 0.0 0.0 0.0 0.0 0.0 0.0 0.0 0.0 0.0 0.0 0.0 0.0 0.0 0.0 0.0 0.0 0.0 0.0 0.0 0.0 0.0 437.085491735 623.926920648 584.842689024 525.576635248 511.000858114 568.778199766 593.893934507 605.721694976 613.813960067 616.29254798 617.236872939 617.715100322 619.646052498 620.156734035 622.374278242 623.201399569 623.773623531 623.988564261 </DataArray>
<DataArray Name="1 stddev of function" format="ascii" type="Float32">0.0 0.0 0.0 0.0 21.7065149606 0.0 0.0 0.0 0.0 0.0 0.0 0.0 0.0 0.0 0.0 0.0 0.0 0.0 0.0 0.0 0.0 0.0 0.0 0.0 0.0 0.0 0.0 0.0 20.3240171472 0.0 0.0 0.0 0.0 11.2592529032 0.0 0.0 0.0 0.0 0.0 0.0 0.0 0.0 0.0 0.0 0.0 0.0 0.0 0.0 0.0 0.0 0.0 0.0 0.0 0.0 0.0 0.0 0.0 15.5446729105 0.0 0.0 0.0 24.1320549387 0.0 0.0 0.0 0.0 0.0 0.0 0.0 0.0 0.0 0.0 0.0 0.0 0.0 0.0 0.0 0.0 0.0 0.0 0.0 0.0 0.0 0.0 0.0 24.7452818778 0.0 0.0 0.0 23.6609523352 0.0 0.0 0.0 0.0 0.0 0.0 0.0 0.0 0.0 0.0 0.0 0.0 0.0 0.0 0.0 0.0 0.0 0.0 0.0 0.0 0.0 0.0 0.0 22.5559004354 0.0 0.0 0.0 8.52455297288 0.0 0.0 0.0 0.0 0.0 0.0 0.0 0.0 0.0 0.0 0.0 0.0 0.0 0.0 0.0 0.0 0.0 0.0 0.0 0.0 0.0 0.0 0.0 0.0 8.7034430224 0.0 0.0 0.0 23.0821185785 0.0 0.0 0.0 0.0 0.0 0.0 0.0 0.0 0.0 0.0 0.0 0.0 0.0 0.0 0.0 0.0 0.0 0.0 0.0 0.0 0.0 0.0 0.0 23.3760629393 0.0 0.0 0.0 24.4511641407 0.0 0.0 0.0 0.0 0.0 0.0 0.0 0.0 0.0 0.0 0.0 0.0 0.0 0.0 0.0 0.0 0.0 0.0 0.0 0.0 0.0 0.0 0.0 23.8883989384 0.0 0.0 0.0 14.5277723122 0.0 0.0 0.0 0.0 0.0 0.0 0.0 0.0 0.0 0.0 0.0 0.0 0.0 0.0 0.0 0.0 0.0 0.0 0.0 0.0 0.0 0.0 0.0 9.98935786426 0.0 0.0 0.0 0.0 20.793158819 0.0 0.0 0.0 0.0 0.0 0.0 0.0 0.0 0.0 0.0 0.0 0.0 0.0 0.0 0.0 0.0 0.0 0.0 0.0 0.0 0.0 0.0 0.0 21.7143390838 0.0 0.0 0.0 24.9539231854 0.0 0.0 0.0 0.0 0.0 0.0 0.0 0.0 0.0 0.0 0.0 0.0 0.0 0.0 0.0 0.0 0.0 0.0 0.0 0.0 0.0 0.0 0.0 20.9065896725 24.978529193 24.1835210221 22.9254582342 22.6053280913 23.8490712558 24.3699391568 24.6114139166 24.775269122 24.8252401394 24.8442523119 24.8538749559 24.8926907444 24.9029462923 24.9474302934 24.9640020744 24.9754604268 24.9797630946 </DataArray>
<DataArray Name="function median" format="ascii" type="Float32">50.0 50.0 50.0 50.0 50.0 0.0 0.0 0.0 0.0 0.0 0.0 0.0 0.0 0.0 0.0 0.0 0.0 0.0 0.0 0.0 0.0 0.0 0.0 0.0 0.0 0.0 0.0 0.0 0.0 50.0 50.0 50.0 50.0 0.0 0.0 0.0 0.0 0.0 0.0 0.0 0.0 0.0 0.0 0.0 0.0 0.0 0.0 0.0 0.0 0.0 0.0 0.0 0.0 0.0 0.0 0.0 0.0 50.0 50.0 50.0 50.0 0.0 0.0 0.0 0.0 0.0 0.0 0.0 0.0 0.0 0.0 0.0 0.0 0.0 0.0 0.0 0.0 0.0 0.0 0.0 0.0 0.0 0.0 0.0 0.0 50.0 50.0 50.0 50.0 50.0 0.0 0.0 0.0 0.0 0.0 0.0 0.0 0.0 0.0 0.0 0.0 0.0 0.0 0.0 0.0 0.0 0.0 0.0 0.0 0.0 0.0 0.0 0.0 0.0 50.0 50.0 50.0 50.0 0.0 0.0 0.0 0.0 0.0 0.0 0.0 0.0 0.0 0.0 0.0 0.0 0.0 0.0 0.0 0.0 0.0 0.0 0.0 0.0 0.0 0.0 0.0 0.0 50.0 50.0 50.0 50.0 0.0 0.0 0.0 0.0 0.0 0.0 0.0 0.0 0.0 0.0 0.0 0.0 0.0 0.0 0.0 0.0 0.0 0.0 0.0 0.0 0.0 0.0 0.0 0.0 50.0 50.0 50.0 50.0 50.0 0.0 0.0 0.0 0.0 0.0 0.0 0.0 0.0 0.0 0.0 0.0 0.0 0.0 0.0 0.0 0.0 0.0 0.0 0.0 0.0 0.0 0.0 0.0 0.0 50.0 50.0 50.0 50.0 0.0 0.0 0.0 0.0 0.0 0.0 0.0 0.0 0.0 0.0 0.0 0.0 0.0 0.0 0.0 0.0 0.0 0.0 0.0 0.0 0.0 0.0 0.0 0.0 50.0 50.0 50.0 50.0 0.0 0.0 0.0 0.0 0.0 0.0 0.0 0.0 0.0 0.0 0.0 0.0 0.0 0.0 0.0 0.0 0.0 0.0 0.0 0.0 0.0 0.0 0.0 0.0 50.0 50.0 50.0 50.0 50.0 0.0 0.0 0.0 0.0 0.0 0.0 0.0 0.0 0.0 0.0 0.0 0.0 0.0 0.0 0.0 0.0 0.0 0.0 0.0 0.0 0.0 0.0 0.0 0.0 50.0 50.0 50.0 50.0 50.0 50.0 50.0 50.0 50.0 50.0 50.0 50.0 50.0 50.0 50.0 50.0 50.0 </DataArray>
<DataArray Name="function mean" format="ascii" type="Float32">50.0 50.0 50.0 50.0 37.4027097146 0.0 0.0 0.0 0.0 0.0 0.0 0.0 0.0 0.0 0.0 0.0 0.0 0.0 0.0 0.0 0.0 0.0 0.0 0.0 0.0 0.0 0.0 0.0 10.4420356162 50.0 50.0 50.0 50.0 2.67895109851 0.0 0.0 0.0 0.0 0.0 0.0 0.0 0.0 0.0 0.0 0.0 0.0 0.0 0.0 0.0 0.0 0.0 0.0 0.0 0.0 0.0 0.0 0.0 44.5796614911 50.0 50.0 50.0 18.469768424 0.0 0.0 0.0 0.0 0.0 0.0 0.0 0.0 0.0 0.0 0.0 0.0 0.0 0.0 0.0 0.0 0.0 0.0 0.0 0.0 0.0 0.0 0.0 28.5596382948 50.0 50.0 50.0 33.0721332121 0.0 0.0 0.0 0.0 0.0 0.0 0.0 0.0 0.0 0.0 0.0 0.0 0.0 0.0 0.0 0.0 0.0 0.0 0.0 0.0 0.0 0.0 0.0 14.2189353241 50.0 50.0 50.0 48.501744544 0.0 0.0 0.0 0.0 0.0 0.0 0.0 0.0 0.0 0.0 0.0 0.0 0.0 0.0 0.0 0.0 0.0 0.0 0.0 0.0 0.0 0.0 0.0 0.0 48.4360849878 50.0 50.0 50.0 15.3970940894 0.0 0.0 0.0 0.0 0.0 0.0 0.0 0.0 0.0 0.0 0.0 0.0 0.0 0.0 0.0 0.0 0.0 0.0 0.0 0.0 0.0 0.0 0.0 33.863389953 50.0 50.0 50.0 30.2096614251 0.0 0.0 0.0 0.0 0.0 0.0 0.0 0.0 0.0 0.0 0.0 0.0 0.0 0.0 0.0 0.0 0.0 0.0 0.0 0.0 0.0 0.0 0.0 17.6281348249 50.0 50.0 50.0 45.3456096405 0.0 0.0 0.0 0.0 0.0 0.0 0.0 0.0 0.0 0.0 0.0 0.0 0.0 0.0 0.0 0.0 0.0 0.0 0.0 0.0 0.0 0.0 0.0 2.08247985798 50.0 50.0 50.0 50.0 11.1203549639 0.0 0.0 0.0 0.0 0.0 0.0 0.0 0.0 0.0 0.0 0.0 0.0 0.0 0.0 0.0 0.0 0.0 0.0 0.0 0.0 0.0 0.0 0.0 37.3890063425 50.0 50.0 50.0 26.5171412773 0.0 0.0 0.0 0.0 0.0 0.0 0.0 0.0 0.0 0.0 0.0 0.0 0.0 0.0 0.0 0.0 0.0 0.0 0.0 0.0 0.0 0.0 0.0 11.2918087165 26.035895435 31.3369796414 34.9711265538 35.6770380671 32.4981197799 30.5772811918 29.3907066657 28.3445537718 27.9508392061 27.7862388737 27.6990553306 27.3138598709 27.2007421396 26.6204078986 26.3411190965 26.1074188317 26.0057016155 </DataArray>
</PointData>
<CellData/>
<Cells>
<DataArray Name="connectivity" format="ascii" type="Int32">0</DataArray>
<DataArray Name="offsets" format="ascii" type="Int32">0</DataArray>
<DataArray Name="types" format="ascii" type="UInt8">11</DataArray>
</Cells>
</Piece>
</UnstructuredGrid>
</VTKFile>
