<?xml version="1.0" ?>
<VTKFile byte_order="LittleEndian" type="UnstructuredGrid" version="0.1">
<UnstructuredGrid>
<Piece NumberOfCells="0" NumberOfPoints="100">
<Points>
<DataArray NumberOfComponents="3" format="ascii" type="Float32">50.0 50.0 50.0 32.1201350902 32.1201350902 32.1201350902 0.0 0.0 0.0 0.0 0.0 0.0 0.0 0.0 0.0 0.0 0.0 0.0 0.0 0.0 0.0 0.0 0.0 0.0 0.0 0.0 0.0 -8.88823478606 -8.88823478606 -8.88823478606 50.0 50.0 50.0 -6.00851228836 -6.00851228836 -6.00851228836 0.0 0.0 0.0 0.0 0.0 0.0 0.0 0.0 0.0 0.0 0.0 0.0 0.0 0.0 0.0 0.0 0.0 0.0 0.0 0.0 0.0 6.32909903433 6.32909903433 6.32909903433 21.1613803693 21.1613803693 21.1613803693 0.0 0.0 0.0 0.0 0.0 0.0 0.0 0.0 0.0 0.0 0.0 0.0 0.0 0.0 0.0 0.0 0.0 0.0 0.0 0.0 0.0 -10.2388747438 -10.2388747438 -10.2388747438 50.0 50.0 50.0 -8.89642056385 -8.89642056385 -8.89642056385 0.0 0.0 0.0 0.0 0.0 0.0 0.0 0.0 0.0 0.0 0.0 0.0 0.0 0.0 0.0 0.0 0.0 0.0 0.0 0.0 0.0 14.1841154165 14.1841154165 14.1841154165 13.2997938729 13.2997938729 13.2997938729 0.0 0.0 0.0 0.0 0.0 0.0 0.0 0.0 0.0 0.0 0.0 0.0 0.0 0.0 0.0 0.0 0.0 0.0 0.0 0.0 0.0 -8.65599011027 -8.65599011027 -8.65599011027 50.0 50.0 50.0 -10.3553389274 -10.3553389274 -10.3553389274 0.0 0.0 0.0 0.0 0.0 0.0 0.0 0.0 0.0 0.0 0.0 0.0 0.0 0.0 0.0 0.0 0.0 0.0 0.0 0.0 0.0 24.6297219412 24.6297219412 24.6297219412 6.36484206289 6.36484206289 6.36484206289 0.0 0.0 0.0 0.0 0.0 0.0 0.0 0.0 0.0 0.0 0.0 0.0 0.0 0.0 0.0 0.0 0.0 0.0 0.0 0.0 0.0 -4.85603551906 -4.85603551906 -4.85603551906 50.0 50.0 50.0 -7.28284582329 -7.28284582329 -7.28284582329 0.0 0.0 0.0 0.0 0.0 0.0 0.0 0.0 0.0 0.0 0.0 0.0 0.0 0.0 0.0 0.0 0.0 0.0 0.0 0.0 0.0 35.1641083228 35.1641083228 35.1641083228 0.686930629071 0.686930629071 0.686930629071 0.0 0.0 0.0 0.0 0.0 0.0 0.0 0.0 0.0 0.0 0.0 0.0 0.0 0.0 0.0 0.0 0.0 0.0 0.0 0.0 0.0 -0.291930470931 -0.291930470931 -0.291930470931 33.5782191888 33.5782191888 33.5782191888 0.0 0.0 0.0 0.0 0.0 0.0 0.0 0.0 0.0 0.0 0.0 0.0 0.0 0.0 0.0 0.0 0.0 0.0 0.0 0.0 0.0 -7.18635631435 -7.18635631435 -7.18635631435 -6.54807221675 -6.54807221675 -6.54807221675 -5.70518791158 -5.70518791158 -5.70518791158 -6.86873137103 -6.86873137103 -6.86873137103 -7.29428711927 -7.29428711927 -7.29428711927 -7.36286361073 -7.36286361073 -7.36286361073 </DataArray>
</Points>
<PointData>
<DataArray Name="Points" format="ascii" type="Float32">50.0 50.0 50.0 32.1201350902 32.1201350902 32.1201350902 0.0 0.0 0.0 0.0 0.0 0.0 0.0 0.0 0.0 0.0 0.0 0.0 0.0 0.0 0.0 0.0 0.0 0.0 0.0 0.0 0.0 -8.88823478606 -8.88823478606 -8.88823478606 50.0 50.0 50.0 -6.00851228836 -6.00851228836 -6.00851228836 0.0 0.0 0.0 0.0 0.0 0.0 0.0 0.0 0.0 0.0 0.0 0.0 0.0 0.0 0.0 0.0 0.0 0.0 0.0 0.0 0.0 6.32909903433 6.32909903433 6.32909903433 21.1613803693 21.1613803693 21.1613803693 0.0 0.0 0.0 0.0 0.0 0.0 0.0 0.0 0.0 0.0 0.0 0.0 0.0 0.0 0.0 0.0 0.0 0.0 0.0 0.0 0.0 -10.2388747438 -10.2388747438 -10.2388747438 50.0 50.0 50.0 -8.89642056385 -8.89642056385 -8.89642056385 0.0 0.0 0.0 0.0 0.0 0.0 0.0 0.0 0.0 0.0 0.0 0.0 0.0 0.0 0.0 0.0 0.0 0.0 0.0 0.0 0.0 14.1841154165 14.1841154165 14.1841154165 13.2997938729 13.2997938729 13.2997938729 0.0 0.0 0.0 0.0 0.0 0.0 0.0 0.0 0.0 0.0 0.0 0.0 0.0 0.0 0.0 0.0 0.0 0.0 0.0 0.0 0.0 -8.65599011027 -8.65599011027 -8.65599011027 50.0 50.0 50.0 -10.3553389274 -10.3553389274 -10.3553389274 0.0 0.0 0.0 0.0 0.0 0.0 0.0 0.0 0.0 0.0 0.0 0.0 0.0 0.0 0.0 0.0 0.0 0.0 0.0 0.0 0.0 24.6297219412 24.6297219412 24.6297219412 6.36484206289 6.36484206289 6.36484206289 0.0 0.0 0.0 0.0 0.0 0.0 0.0 0.0 0.0 0.0 0.0 0.0 0.0 0.0 0.0 0.0 0.0 0.0 0.0 0.0 0.0 -4.85603551906 -4.85603551906 -4.85603551906 50.0 50.0 50.0 -7.28284582329 -7.28284582329 -7.28284582329 0.0 0.0 0.0 0.0 0.0 0.0 0.0 0.0 0.0 0.0 0.0 0.0 0.0 0.0 0.0 0.0 0.0 0.0 0.0 0.0 0.0 35.1641083228 35.1641083228 35.1641083228 0.686930629071 0.686930629071 0.686930629071 0.0 0.0 0.0 0.0 0.0 0.0 0.0 0.0 0.0 0.0 0.0 0.0 0.0 0.0 0.0 0.0 0.0 0.0 0.0 0.0 0.0 -0.291930470931 -0.291930470931 -0.291930470931 33.5782191888 33.5782191888 33.5782191888 0.0 0.0 0.0 0.0 0.0 0.0 0.0 0.0 0.0 0.0 0.0 0.0 0.0 0.0 0.0 0.0 0.0 0.0 0.0 0.0 0.0 -7.18635631435 -7.18635631435 -7.18635631435 -6.54807221675 -6.54807221675 -6.54807221675 -5.70518791158 -5.70518791158 -5.70518791158 -6.86873137103 -6.86873137103 -6.86873137103 -7.29428711927 -7.29428711927 -7.29428711927 -7.36286361073 -7.36286361073 -7.36286361073 </DataArray>
<DataArray Name="function -1 stddev" format="ascii" type="Float32">50.0 32.1201350902 0.0 0.0 0.0 0.0 0.0 0.0 0.0 -8.88823478606 50.0 -6.00851228836 0.0 0.0 0.0 0.0 0.0 0.0 0.0 6.32909903433 21.1613803693 0.0 0.0 0.0 0.0 0.0 0.0 0.0 -10.2388747438 50.0 -8.89642056385 0.0 0.0 0.0 0.0 0.0 0.0 0.0 14.1841154165 13.2997938729 0.0 0.0 0.0 0.0 0.0 0.0 0.0 -8.65599011027 50.0 -10.3553389274 0.0 0.0 0.0 0.0 0.0 0.0 0.0 24.6297219412 6.36484206289 0.0 0.0 0.0 0.0 0.0 0.0 0.0 -4.85603551906 50.0 -7.28284582329 0.0 0.0 0.0 0.0 0.0 0.0 0.0 35.1641083228 0.686930629071 0.0 0.0 0.0 0.0 0.0 0.0 0.0 -0.291930470931 33.5782191888 0.0 0.0 0.0 0.0 0.0 0.0 0.0 -7.18635631435 -6.54807221675 -5.70518791158 -6.86873137103 -7.29428711927 -7.36286361073 </DataArray>
<DataArray Name="function +1 stddev" format="ascii" type="Float32">50.0 59.630964126 0.0 0.0 0.0 0.0 0.0 0.0 0.0 14.9209354062 50.0 41.9844683656 0.0 0.0 0.0 0.0 0.0 0.0 0.0 55.023281918 60.1463369262 0.0 0.0 0.0 0.0 0.0 0.0 0.0 27.8673518773 50.0 35.0515010301 0.0 0.0 0.0 0.0 0.0 0.0 0.0 58.6603125457 58.3632309074 0.0 0.0 0.0 0.0 0.0 0.0 0.0 35.8293272966 50.0 24.9969451629 0.0 0.0 0.0 0.0 0.0 0.0 0.0 60.3534000368 55.0454803366 0.0 0.0 0.0 0.0 0.0 0.0 0.0 43.9371894188 50.0 10.584110657 0.0 0.0 0.0 0.0 0.0 0.0 0.0 58.8628247788 50.6685538697 0.0 0.0 0.0 0.0 0.0 0.0 0.0 49.7046200751 59.2988943779 0.0 0.0 0.0 0.0 0.0 0.0 0.0 10.3699464387 40.9599229136 42.5268775118 40.3096035481 39.3902404239 39.235345409 </DataArray>
<DataArray Name="function coefficient of variation" format="ascii" type="Float32">0.0 0.0 0.0 0.0 0.0 0.0 0.0 0.0 0.0 0.0 0.0 0.0 0.0 0.0 0.0 0.0 0.0 0.0 0.0 0.0 0.0 0.0 0.0 0.0 0.0 0.0 0.0 0.0 0.0 0.0 0.0 0.0 0.0 0.0 0.0 0.0 0.0 0.0 0.0 0.0 0.0 0.0 0.0 0.0 0.0 0.0 0.0 0.0 0.0 0.0 0.0 0.0 0.0 0.0 0.0 0.0 0.0 0.0 0.0 0.0 0.0 0.0 0.0 0.0 0.0 0.0 0.0 0.0 0.0 0.0 0.0 0.0 0.0 0.0 0.0 0.0 0.0 0.0 0.0 0.0 0.0 0.0 0.0 0.0 0.0 0.0 0.0 0.0 0.0 0.0 0.0 0.0 0.0 0.0 0.0 0.0 0.0 0.0 0.0 0.0 </DataArray>
<DataArray Name="time" format="ascii" type="Float32">0.0 10.5877379222 21.1754758444 31.7632137666 42.3509516887 52.9386896109 63.5264275331 74.1141654553 84.7019033775 95.2896412997 105.877379222 116.465117144 127.052855066 137.640592988 148.228330911 158.816068833 169.403806755 179.991544677 190.579282599 201.167020522 211.754758444 222.342496366 232.930234288 243.51797221 254.105710132 264.693448055 275.281185977 285.868923899 296.456661821 307.044399743 317.632137666 328.219875588 338.80761351 349.395351432 359.983089354 370.570827277 381.158565199 391.746303121 402.334041043 412.921778965 423.509516887 434.09725481 444.684992732 455.272730654 465.860468576 476.448206498 487.035944421 497.623682343 508.211420265 518.799158187 529.386896109 539.974634032 550.562371954 561.150109876 571.737847798 582.32558572 592.913323642 603.501061565 614.088799487 624.676537409 635.264275331 645.852013253 656.439751176 667.027489098 677.61522702 688.202964942 698.790702864 709.378440787 719.966178709 730.553916631 741.141654553 751.729392475 762.317130397 772.90486832 783.492606242 794.080344164 804.668082086 815.255820008 825.843557931 836.431295853 847.019033775 857.606771697 868.194509619 878.782247542 889.369985464 899.957723386 910.545461308 921.13319923 931.720937152 942.308675075 952.896412997 963.484150919 974.071888841 984.659626763 995.247364686 1005.83510261 1016.42284053 1027.01057845 1037.59831637 1048.1860543 </DataArray>
<DataArray Name="function variance" format="ascii" type="Float32">0.0 189.21142856 0.0 0.0 0.0 0.0 0.0 0.0 0.0 141.719146311 0.0 575.831548013 0.0 0.0 0.0 0.0 0.0 0.0 0.0 592.780861678 379.956709437 0.0 0.0 0.0 0.0 0.0 0.0 0.0 363.021126825 0.0 482.854953108 0.0 0.0 0.0 0.0 0.0 0.0 0.0 494.53302777 507.678339342 0.0 0.0 0.0 0.0 0.0 0.0 0.0 494.735866198 0.0 312.445997599 0.0 0.0 0.0 0.0 0.0 0.0 0.0 319.045294169 592.451135685 0.0 0.0 0.0 0.0 0.0 0.0 0.0 595.19469996 0.0 79.8070334673 0.0 0.0 0.0 0.0 0.0 0.0 0.0 140.407290416 624.540665443 0.0 0.0 0.0 0.0 0.0 0.0 0.0 624.913766625 165.388283046 0.0 0.0 0.0 0.0 0.0 0.0 0.0 77.0559415894 564.252400325 581.583033752 556.448821436 544.861277982 542.848270962 </DataArray>
<DataArray Name="1 stddev of function" format="ascii" type="Float32">0.0 13.7554145179 0.0 0.0 0.0 0.0 0.0 0.0 0.0 11.9045850961 0.0 23.996490327 0.0 0.0 0.0 0.0 0.0 0.0 0.0 24.3470914419 19.4924782785 0.0 0.0 0.0 0.0 0.0 0.0 0.0 19.0531133106 0.0 21.973960797 0.0 0.0 0.0 0.0 0.0 0.0 0.0 22.2380985646 22.5317185173 0.0 0.0 0.0 0.0 0.0 0.0 0.0 22.2426587034 0.0 17.6761420451 0.0 0.0 0.0 0.0 0.0 0.0 0.0 17.8618390478 24.3403191369 0.0 0.0 0.0 0.0 0.0 0.0 0.0 24.3966124689 0.0 8.93347824015 0.0 0.0 0.0 0.0 0.0 0.0 0.0 11.849358228 24.9908116203 0.0 0.0 0.0 0.0 0.0 0.0 0.0 24.998275273 12.8603375945 0.0 0.0 0.0 0.0 0.0 0.0 0.0 8.77815137653 23.7539975652 24.1160327117 23.5891674596 23.3422637716 23.2991045099 </DataArray>
<DataArray Name="function median" format="ascii" type="Float32">50.0 50.0 0.0 0.0 0.0 0.0 0.0 0.0 0.0 0.0 50.0 0.0 0.0 0.0 0.0 0.0 0.0 0.0 0.0 50.0 50.0 0.0 0.0 0.0 0.0 0.0 0.0 0.0 0.0 50.0 0.0 0.0 0.0 0.0 0.0 0.0 0.0 0.0 50.0 50.0 0.0 0.0 0.0 0.0 0.0 0.0 0.0 0.0 50.0 0.0 0.0 0.0 0.0 0.0 0.0 0.0 0.0 50.0 50.0 0.0 0.0 0.0 0.0 0.0 0.0 0.0 0.0 50.0 0.0 0.0 0.0 0.0 0.0 0.0 0.0 0.0 50.0 50.0 0.0 0.0 0.0 0.0 0.0 0.0 0.0 0.0 50.0 0.0 0.0 0.0 0.0 0.0 0.0 0.0 0.0 0.0 0.0 0.0 0.0 0.0 </DataArray>
<DataArray Name="function mean" format="ascii" type="Float32">50.0 45.8755496081 0.0 0.0 0.0 0.0 0.0 0.0 0.0 3.01635031009 50.0 17.9879780386 0.0 0.0 0.0 0.0 0.0 0.0 0.0 30.6761904762 40.6538586477 0.0 0.0 0.0 0.0 0.0 0.0 0.0 8.81423856671 50.0 13.0775402331 0.0 0.0 0.0 0.0 0.0 0.0 0.0 36.4222139811 35.8315123902 0.0 0.0 0.0 0.0 0.0 0.0 0.0 13.5866685932 50.0 7.32080311775 0.0 0.0 0.0 0.0 0.0 0.0 0.0 42.491560989 30.7051611998 0.0 0.0 0.0 0.0 0.0 0.0 0.0 19.5405769499 50.0 1.65063241686 0.0 0.0 0.0 0.0 0.0 0.0 0.0 47.0134665508 25.6777422494 0.0 0.0 0.0 0.0 0.0 0.0 0.0 24.7063448021 46.4385567834 0.0 0.0 0.0 0.0 0.0 0.0 0.0 1.59179506219 17.2059253484 18.4108448001 16.7204360886 16.0479766523 15.9362408991 </DataArray>
</PointData>
<CellData/>
<Cells>
<DataArray Name="connectivity" format="ascii" type="Int32">0</DataArray>
<DataArray Name="offsets" format="ascii" type="Int32">0</DataArray>
<DataArray Name="types" format="ascii" type="UInt8">11</DataArray>
</Cells>
</Piece>
</UnstructuredGrid>
</VTKFile>
