<?xml version="1.0" ?>
<VTKFile byte_order="LittleEndian" type="UnstructuredGrid" version="0.1">
<UnstructuredGrid>
<Piece NumberOfCells="0" NumberOfPoints="300">
<Points>
<DataArray NumberOfComponents="3" format="ascii" type="Float32">50.0 50.0 50.0 50.0 50.0 50.0 nan nan nan 50.0 50.0 50.0 0.0 0.0 0.0 0.0 0.0 0.0 0.0 0.0 0.0 0.0 0.0 0.0 0.0 0.0 0.0 0.0 0.0 0.0 0.0 0.0 0.0 0.0 0.0 0.0 0.0 0.0 0.0 0.0 0.0 0.0 0.0 0.0 0.0 0.0 0.0 0.0 0.0 0.0 0.0 0.0 0.0 0.0 0.0 0.0 0.0 0.0 0.0 0.0 0.0 0.0 0.0 0.0 0.0 0.0 0.0 0.0 0.0 0.0 0.0 0.0 0.0 0.0 0.0 0.0 0.0 0.0 0.0 0.0 0.0 0.0 0.0 0.0 50.0 50.0 50.0 50.0 50.0 50.0 50.0 50.0 50.0 50.0 50.0 50.0 0.0 0.0 0.0 0.0 0.0 0.0 0.0 0.0 0.0 0.0 0.0 0.0 0.0 0.0 0.0 0.0 0.0 0.0 0.0 0.0 0.0 0.0 0.0 0.0 0.0 0.0 0.0 0.0 0.0 0.0 0.0 0.0 0.0 0.0 0.0 0.0 0.0 0.0 0.0 0.0 0.0 0.0 0.0 0.0 0.0 0.0 0.0 0.0 0.0 0.0 0.0 0.0 0.0 0.0 0.0 0.0 0.0 0.0 0.0 0.0 0.0 0.0 0.0 0.0 0.0 0.0 0.0 0.0 0.0 -10.2416110376 -10.2416110376 -10.2416110376 50.0 50.0 50.0 50.0 50.0 50.0 50.0 50.0 50.0 38.6800004971 38.6800004971 38.6800004971 0.0 0.0 0.0 0.0 0.0 0.0 0.0 0.0 0.0 0.0 0.0 0.0 0.0 0.0 0.0 0.0 0.0 0.0 0.0 0.0 0.0 0.0 0.0 0.0 0.0 0.0 0.0 0.0 0.0 0.0 0.0 0.0 0.0 0.0 0.0 0.0 0.0 0.0 0.0 0.0 0.0 0.0 0.0 0.0 0.0 0.0 0.0 0.0 0.0 0.0 0.0 0.0 0.0 0.0 0.0 0.0 0.0 0.0 0.0 0.0 0.0 0.0 0.0 0.0 0.0 0.0 -5.20891594223 -5.20891594223 -5.20891594223 50.0 50.0 50.0 50.0 50.0 50.0 50.0 50.0 50.0 16.9421079327 16.9421079327 16.9421079327 0.0 0.0 0.0 0.0 0.0 0.0 0.0 0.0 0.0 0.0 0.0 0.0 0.0 0.0 0.0 0.0 0.0 0.0 0.0 0.0 0.0 0.0 0.0 0.0 0.0 0.0 0.0 0.0 0.0 0.0 0.0 0.0 0.0 0.0 0.0 0.0 0.0 0.0 0.0 0.0 0.0 0.0 0.0 0.0 0.0 0.0 0.0 0.0 0.0 0.0 0.0 0.0 0.0 0.0 0.0 0.0 0.0 0.0 0.0 0.0 0.0 0.0 0.0 0.0 0.0 0.0 0.0 0.0 0.0 38.6717573301 38.6717573301 38.6717573301 50.0 50.0 50.0 50.0 50.0 50.0 50.0 50.0 50.0 -9.0569134821 -9.0569134821 -9.0569134821 0.0 0.0 0.0 0.0 0.0 0.0 0.0 0.0 0.0 0.0 0.0 0.0 0.0 0.0 0.0 0.0 0.0 0.0 0.0 0.0 0.0 0.0 0.0 0.0 0.0 0.0 0.0 0.0 0.0 0.0 0.0 0.0 0.0 0.0 0.0 0.0 0.0 0.0 0.0 0.0 0.0 0.0 0.0 0.0 0.0 0.0 0.0 0.0 0.0 0.0 0.0 0.0 0.0 0.0 0.0 0.0 0.0 0.0 0.0 0.0 0.0 0.0 0.0 0.0 0.0 0.0 -9.84768200692 -9.84768200692 -9.84768200692 50.0 50.0 50.0 50.0 50.0 50.0 50.0 50.0 50.0 35.1330345377 35.1330345377 35.1330345377 0.0 0.0 0.0 0.0 0.0 0.0 0.0 0.0 0.0 0.0 0.0 0.0 0.0 0.0 0.0 0.0 0.0 0.0 0.0 0.0 0.0 0.0 0.0 0.0 0.0 0.0 0.0 0.0 0.0 0.0 0.0 0.0 0.0 0.0 0.0 0.0 0.0 0.0 0.0 0.0 0.0 0.0 0.0 0.0 0.0 0.0 0.0 0.0 0.0 0.0 0.0 0.0 0.0 0.0 0.0 0.0 0.0 0.0 0.0 0.0 0.0 0.0 0.0 0.0 0.0 0.0 0.0 0.0 0.0 16.3459384628 16.3459384628 16.3459384628 50.0 50.0 50.0 50.0 50.0 50.0 50.0 50.0 50.0 -5.13398579371 -5.13398579371 -5.13398579371 0.0 0.0 0.0 0.0 0.0 0.0 0.0 0.0 0.0 0.0 0.0 0.0 0.0 0.0 0.0 0.0 0.0 0.0 0.0 0.0 0.0 0.0 0.0 0.0 0.0 0.0 0.0 0.0 0.0 0.0 0.0 0.0 0.0 0.0 0.0 0.0 0.0 0.0 0.0 0.0 0.0 0.0 0.0 0.0 0.0 0.0 0.0 0.0 0.0 0.0 0.0 0.0 0.0 0.0 0.0 0.0 0.0 0.0 0.0 0.0 0.0 0.0 0.0 0.0 0.0 0.0 13.2873766704 13.2873766704 13.2873766704 50.0 50.0 50.0 50.0 50.0 50.0 50.0 50.0 50.0 0.328632387135 0.328632387135 0.328632387135 0.0 0.0 0.0 0.0 0.0 0.0 0.0 0.0 0.0 0.0 0.0 0.0 0.0 0.0 0.0 0.0 0.0 0.0 0.0 0.0 0.0 0.0 0.0 0.0 0.0 0.0 0.0 0.0 0.0 0.0 0.0 0.0 0.0 0.0 0.0 0.0 0.0 0.0 0.0 0.0 0.0 0.0 0.0 0.0 0.0 0.0 0.0 0.0 0.0 0.0 0.0 0.0 0.0 0.0 0.0 0.0 0.0 0.0 0.0 0.0 0.0 0.0 0.0 0.0 0.0 0.0 -2.74887168418 -2.74887168418 -2.74887168418 50.0 50.0 50.0 50.0 50.0 50.0 50.0 50.0 50.0 50.0 50.0 50.0 -9.98207079454 -9.98207079454 -9.98207079454 0.0 0.0 0.0 0.0 0.0 0.0 0.0 0.0 0.0 0.0 0.0 0.0 0.0 0.0 0.0 0.0 0.0 0.0 0.0 0.0 0.0 0.0 0.0 0.0 0.0 0.0 0.0 0.0 0.0 0.0 0.0 0.0 0.0 0.0 0.0 0.0 0.0 0.0 0.0 0.0 0.0 0.0 0.0 0.0 0.0 0.0 0.0 0.0 0.0 0.0 0.0 0.0 0.0 0.0 0.0 0.0 0.0 0.0 0.0 0.0 0.0 0.0 0.0 0.0 0.0 0.0 0.0952490907627 0.0952490907627 0.0952490907627 50.0 50.0 50.0 50.0 50.0 50.0 50.0 50.0 50.0 3.87473748518 3.87473748518 3.87473748518 0.0 0.0 0.0 0.0 0.0 0.0 0.0 0.0 0.0 0.0 0.0 0.0 0.0 0.0 0.0 0.0 0.0 0.0 0.0 0.0 0.0 0.0 0.0 0.0 0.0 0.0 0.0 0.0 0.0 0.0 0.0 0.0 0.0 0.0 0.0 0.0 0.0 0.0 0.0 0.0 0.0 0.0 0.0 0.0 0.0 0.0 0.0 0.0 0.0 0.0 0.0 0.0 0.0 0.0 0.0 0.0 0.0 0.0 0.0 0.0 0.0 0.0 0.0 0.0 0.0 0.0 -9.3402356965 -9.3402356965 -9.3402356965 -7.75468732187 -7.75468732187 -7.75468732187 -3.12187121568 -3.12187121568 -3.12187121568 0.392862986376 0.392862986376 0.392862986376 2.76036722661 2.76036722661 2.76036722661 0.757287347155 0.757287347155 0.757287347155 -0.625016651308 -0.625016651308 -0.625016651308 -1.61617884384 -1.61617884384 -1.61617884384 -2.24026241772 -2.24026241772 -2.24026241772 -2.6903087014 -2.6903087014 -2.6903087014 -3.0502388199 -3.0502388199 -3.0502388199 -3.23839686543 -3.23839686543 -3.23839686543 -3.3874734514 -3.3874734514 -3.3874734514 -3.51760794321 -3.51760794321 -3.51760794321 -3.5913058129 -3.5913058129 -3.5913058129 -3.66325484212 -3.66325484212 -3.66325484212 -3.70674256304 -3.70674256304 -3.70674256304 -3.74170821441 -3.74170821441 -3.74170821441 -3.76667058462 -3.76667058462 -3.76667058462 -3.79924380478 -3.79924380478 -3.79924380478 -3.79924380478 -3.79924380478 -3.79924380478 -3.83001679141 -3.83001679141 -3.83001679141 -3.83647412376 -3.83647412376 -3.83647412376 -3.83647412376 -3.83647412376 -3.83647412376 -3.83647412376 -3.83647412376 -3.83647412376 -3.83647412376 -3.83647412376 -3.83647412376 </DataArray>
</Points>
<PointData>
<DataArray Name="Points" format="ascii" type="Float32">50.0 50.0 50.0 50.0 50.0 50.0 nan nan nan 50.0 50.0 50.0 0.0 0.0 0.0 0.0 0.0 0.0 0.0 0.0 0.0 0.0 0.0 0.0 0.0 0.0 0.0 0.0 0.0 0.0 0.0 0.0 0.0 0.0 0.0 0.0 0.0 0.0 0.0 0.0 0.0 0.0 0.0 0.0 0.0 0.0 0.0 0.0 0.0 0.0 0.0 0.0 0.0 0.0 0.0 0.0 0.0 0.0 0.0 0.0 0.0 0.0 0.0 0.0 0.0 0.0 0.0 0.0 0.0 0.0 0.0 0.0 0.0 0.0 0.0 0.0 0.0 0.0 0.0 0.0 0.0 0.0 0.0 0.0 50.0 50.0 50.0 50.0 50.0 50.0 50.0 50.0 50.0 50.0 50.0 50.0 0.0 0.0 0.0 0.0 0.0 0.0 0.0 0.0 0.0 0.0 0.0 0.0 0.0 0.0 0.0 0.0 0.0 0.0 0.0 0.0 0.0 0.0 0.0 0.0 0.0 0.0 0.0 0.0 0.0 0.0 0.0 0.0 0.0 0.0 0.0 0.0 0.0 0.0 0.0 0.0 0.0 0.0 0.0 0.0 0.0 0.0 0.0 0.0 0.0 0.0 0.0 0.0 0.0 0.0 0.0 0.0 0.0 0.0 0.0 0.0 0.0 0.0 0.0 0.0 0.0 0.0 0.0 0.0 0.0 -10.2416110376 -10.2416110376 -10.2416110376 50.0 50.0 50.0 50.0 50.0 50.0 50.0 50.0 50.0 38.6800004971 38.6800004971 38.6800004971 0.0 0.0 0.0 0.0 0.0 0.0 0.0 0.0 0.0 0.0 0.0 0.0 0.0 0.0 0.0 0.0 0.0 0.0 0.0 0.0 0.0 0.0 0.0 0.0 0.0 0.0 0.0 0.0 0.0 0.0 0.0 0.0 0.0 0.0 0.0 0.0 0.0 0.0 0.0 0.0 0.0 0.0 0.0 0.0 0.0 0.0 0.0 0.0 0.0 0.0 0.0 0.0 0.0 0.0 0.0 0.0 0.0 0.0 0.0 0.0 0.0 0.0 0.0 0.0 0.0 0.0 -5.20891594223 -5.20891594223 -5.20891594223 50.0 50.0 50.0 50.0 50.0 50.0 50.0 50.0 50.0 16.9421079327 16.9421079327 16.9421079327 0.0 0.0 0.0 0.0 0.0 0.0 0.0 0.0 0.0 0.0 0.0 0.0 0.0 0.0 0.0 0.0 0.0 0.0 0.0 0.0 0.0 0.0 0.0 0.0 0.0 0.0 0.0 0.0 0.0 0.0 0.0 0.0 0.0 0.0 0.0 0.0 0.0 0.0 0.0 0.0 0.0 0.0 0.0 0.0 0.0 0.0 0.0 0.0 0.0 0.0 0.0 0.0 0.0 0.0 0.0 0.0 0.0 0.0 0.0 0.0 0.0 0.0 0.0 0.0 0.0 0.0 0.0 0.0 0.0 38.6717573301 38.6717573301 38.6717573301 50.0 50.0 50.0 50.0 50.0 50.0 50.0 50.0 50.0 -9.0569134821 -9.0569134821 -9.0569134821 0.0 0.0 0.0 0.0 0.0 0.0 0.0 0.0 0.0 0.0 0.0 0.0 0.0 0.0 0.0 0.0 0.0 0.0 0.0 0.0 0.0 0.0 0.0 0.0 0.0 0.0 0.0 0.0 0.0 0.0 0.0 0.0 0.0 0.0 0.0 0.0 0.0 0.0 0.0 0.0 0.0 0.0 0.0 0.0 0.0 0.0 0.0 0.0 0.0 0.0 0.0 0.0 0.0 0.0 0.0 0.0 0.0 0.0 0.0 0.0 0.0 0.0 0.0 0.0 0.0 0.0 -9.84768200692 -9.84768200692 -9.84768200692 50.0 50.0 50.0 50.0 50.0 50.0 50.0 50.0 50.0 35.1330345377 35.1330345377 35.1330345377 0.0 0.0 0.0 0.0 0.0 0.0 0.0 0.0 0.0 0.0 0.0 0.0 0.0 0.0 0.0 0.0 0.0 0.0 0.0 0.0 0.0 0.0 0.0 0.0 0.0 0.0 0.0 0.0 0.0 0.0 0.0 0.0 0.0 0.0 0.0 0.0 0.0 0.0 0.0 0.0 0.0 0.0 0.0 0.0 0.0 0.0 0.0 0.0 0.0 0.0 0.0 0.0 0.0 0.0 0.0 0.0 0.0 0.0 0.0 0.0 0.0 0.0 0.0 0.0 0.0 0.0 0.0 0.0 0.0 16.3459384628 16.3459384628 16.3459384628 50.0 50.0 50.0 50.0 50.0 50.0 50.0 50.0 50.0 -5.13398579371 -5.13398579371 -5.13398579371 0.0 0.0 0.0 0.0 0.0 0.0 0.0 0.0 0.0 0.0 0.0 0.0 0.0 0.0 0.0 0.0 0.0 0.0 0.0 0.0 0.0 0.0 0.0 0.0 0.0 0.0 0.0 0.0 0.0 0.0 0.0 0.0 0.0 0.0 0.0 0.0 0.0 0.0 0.0 0.0 0.0 0.0 0.0 0.0 0.0 0.0 0.0 0.0 0.0 0.0 0.0 0.0 0.0 0.0 0.0 0.0 0.0 0.0 0.0 0.0 0.0 0.0 0.0 0.0 0.0 0.0 13.2873766704 13.2873766704 13.2873766704 50.0 50.0 50.0 50.0 50.0 50.0 50.0 50.0 50.0 0.328632387135 0.328632387135 0.328632387135 0.0 0.0 0.0 0.0 0.0 0.0 0.0 0.0 0.0 0.0 0.0 0.0 0.0 0.0 0.0 0.0 0.0 0.0 0.0 0.0 0.0 0.0 0.0 0.0 0.0 0.0 0.0 0.0 0.0 0.0 0.0 0.0 0.0 0.0 0.0 0.0 0.0 0.0 0.0 0.0 0.0 0.0 0.0 0.0 0.0 0.0 0.0 0.0 0.0 0.0 0.0 0.0 0.0 0.0 0.0 0.0 0.0 0.0 0.0 0.0 0.0 0.0 0.0 0.0 0.0 0.0 -2.74887168418 -2.74887168418 -2.74887168418 50.0 50.0 50.0 50.0 50.0 50.0 50.0 50.0 50.0 50.0 50.0 50.0 -9.98207079454 -9.98207079454 -9.98207079454 0.0 0.0 0.0 0.0 0.0 0.0 0.0 0.0 0.0 0.0 0.0 0.0 0.0 0.0 0.0 0.0 0.0 0.0 0.0 0.0 0.0 0.0 0.0 0.0 0.0 0.0 0.0 0.0 0.0 0.0 0.0 0.0 0.0 0.0 0.0 0.0 0.0 0.0 0.0 0.0 0.0 0.0 0.0 0.0 0.0 0.0 0.0 0.0 0.0 0.0 0.0 0.0 0.0 0.0 0.0 0.0 0.0 0.0 0.0 0.0 0.0 0.0 0.0 0.0 0.0 0.0 0.0952490907627 0.0952490907627 0.0952490907627 50.0 50.0 50.0 50.0 50.0 50.0 50.0 50.0 50.0 3.87473748518 3.87473748518 3.87473748518 0.0 0.0 0.0 0.0 0.0 0.0 0.0 0.0 0.0 0.0 0.0 0.0 0.0 0.0 0.0 0.0 0.0 0.0 0.0 0.0 0.0 0.0 0.0 0.0 0.0 0.0 0.0 0.0 0.0 0.0 0.0 0.0 0.0 0.0 0.0 0.0 0.0 0.0 0.0 0.0 0.0 0.0 0.0 0.0 0.0 0.0 0.0 0.0 0.0 0.0 0.0 0.0 0.0 0.0 0.0 0.0 0.0 0.0 0.0 0.0 0.0 0.0 0.0 0.0 0.0 0.0 -9.3402356965 -9.3402356965 -9.3402356965 -7.75468732187 -7.75468732187 -7.75468732187 -3.12187121568 -3.12187121568 -3.12187121568 0.392862986376 0.392862986376 0.392862986376 2.76036722661 2.76036722661 2.76036722661 0.757287347155 0.757287347155 0.757287347155 -0.625016651308 -0.625016651308 -0.625016651308 -1.61617884384 -1.61617884384 -1.61617884384 -2.24026241772 -2.24026241772 -2.24026241772 -2.6903087014 -2.6903087014 -2.6903087014 -3.0502388199 -3.0502388199 -3.0502388199 -3.23839686543 -3.23839686543 -3.23839686543 -3.3874734514 -3.3874734514 -3.3874734514 -3.51760794321 -3.51760794321 -3.51760794321 -3.5913058129 -3.5913058129 -3.5913058129 -3.66325484212 -3.66325484212 -3.66325484212 -3.70674256304 -3.70674256304 -3.70674256304 -3.74170821441 -3.74170821441 -3.74170821441 -3.76667058462 -3.76667058462 -3.76667058462 -3.79924380478 -3.79924380478 -3.79924380478 -3.79924380478 -3.79924380478 -3.79924380478 -3.83001679141 -3.83001679141 -3.83001679141 -3.83647412376 -3.83647412376 -3.83647412376 -3.83647412376 -3.83647412376 -3.83647412376 -3.83647412376 -3.83647412376 -3.83647412376 -3.83647412376 -3.83647412376 -3.83647412376 </DataArray>
<DataArray Name="function -1 stddev" format="ascii" type="Float32">50.0 50.0 nan 50.0 0.0 0.0 0.0 0.0 0.0 0.0 0.0 0.0 0.0 0.0 0.0 0.0 0.0 0.0 0.0 0.0 0.0 0.0 0.0 0.0 0.0 0.0 0.0 0.0 50.0 50.0 50.0 50.0 0.0 0.0 0.0 0.0 0.0 0.0 0.0 0.0 0.0 0.0 0.0 0.0 0.0 0.0 0.0 0.0 0.0 0.0 0.0 0.0 0.0 0.0 0.0 -10.2416110376 50.0 50.0 50.0 38.6800004971 0.0 0.0 0.0 0.0 0.0 0.0 0.0 0.0 0.0 0.0 0.0 0.0 0.0 0.0 0.0 0.0 0.0 0.0 0.0 0.0 0.0 0.0 -5.20891594223 50.0 50.0 50.0 16.9421079327 0.0 0.0 0.0 0.0 0.0 0.0 0.0 0.0 0.0 0.0 0.0 0.0 0.0 0.0 0.0 0.0 0.0 0.0 0.0 0.0 0.0 0.0 0.0 38.6717573301 50.0 50.0 50.0 -9.0569134821 0.0 0.0 0.0 0.0 0.0 0.0 0.0 0.0 0.0 0.0 0.0 0.0 0.0 0.0 0.0 0.0 0.0 0.0 0.0 0.0 0.0 0.0 -9.84768200692 50.0 50.0 50.0 35.1330345377 0.0 0.0 0.0 0.0 0.0 0.0 0.0 0.0 0.0 0.0 0.0 0.0 0.0 0.0 0.0 0.0 0.0 0.0 0.0 0.0 0.0 0.0 0.0 16.3459384628 50.0 50.0 50.0 -5.13398579371 0.0 0.0 0.0 0.0 0.0 0.0 0.0 0.0 0.0 0.0 0.0 0.0 0.0 0.0 0.0 0.0 0.0 0.0 0.0 0.0 0.0 0.0 13.2873766704 50.0 50.0 50.0 0.328632387135 0.0 0.0 0.0 0.0 0.0 0.0 0.0 0.0 0.0 0.0 0.0 0.0 0.0 0.0 0.0 0.0 0.0 0.0 0.0 0.0 0.0 0.0 -2.74887168418 50.0 50.0 50.0 50.0 -9.98207079454 0.0 0.0 0.0 0.0 0.0 0.0 0.0 0.0 0.0 0.0 0.0 0.0 0.0 0.0 0.0 0.0 0.0 0.0 0.0 0.0 0.0 0.0 0.0952490907627 50.0 50.0 50.0 3.87473748518 0.0 0.0 0.0 0.0 0.0 0.0 0.0 0.0 0.0 0.0 0.0 0.0 0.0 0.0 0.0 0.0 0.0 0.0 0.0 0.0 0.0 0.0 -9.3402356965 -7.75468732187 -3.12187121568 0.392862986376 2.76036722661 0.757287347155 -0.625016651308 -1.61617884384 -2.24026241772 -2.6903087014 -3.0502388199 -3.23839686543 -3.3874734514 -3.51760794321 -3.5913058129 -3.66325484212 -3.70674256304 -3.74170821441 -3.76667058462 -3.79924380478 -3.79924380478 -3.83001679141 -3.83647412376 -3.83647412376 -3.83647412376 -3.83647412376 </DataArray>
<DataArray Name="function +1 stddev" format="ascii" type="Float32">50.0 50.0 nan 50.0 0.0 0.0 0.0 0.0 0.0 0.0 0.0 0.0 0.0 0.0 0.0 0.0 0.0 0.0 0.0 0.0 0.0 0.0 0.0 0.0 0.0 0.0 0.0 0.0 50.0 50.0 50.0 50.0 0.0 0.0 0.0 0.0 0.0 0.0 0.0 0.0 0.0 0.0 0.0 0.0 0.0 0.0 0.0 0.0 0.0 0.0 0.0 0.0 0.0 0.0 0.0 27.8335228024 50.0 50.0 50.0 57.6014966896 0.0 0.0 0.0 0.0 0.0 0.0 0.0 0.0 0.0 0.0 0.0 0.0 0.0 0.0 0.0 0.0 0.0 0.0 0.0 0.0 0.0 0.0 43.3690336598 50.0 50.0 50.0 59.4248511316 0.0 0.0 0.0 0.0 0.0 0.0 0.0 0.0 0.0 0.0 0.0 0.0 0.0 0.0 0.0 0.0 0.0 0.0 0.0 0.0 0.0 0.0 0.0 57.6049544012 50.0 50.0 50.0 15.5064946372 0.0 0.0 0.0 0.0 0.0 0.0 0.0 0.0 0.0 0.0 0.0 0.0 0.0 0.0 0.0 0.0 0.0 0.0 0.0 0.0 0.0 0.0 19.030154211 50.0 50.0 50.0 58.8721362045 0.0 0.0 0.0 0.0 0.0 0.0 0.0 0.0 0.0 0.0 0.0 0.0 0.0 0.0 0.0 0.0 0.0 0.0 0.0 0.0 0.0 0.0 0.0 59.2798369149 50.0 50.0 50.0 43.4916981423 0.0 0.0 0.0 0.0 0.0 0.0 0.0 0.0 0.0 0.0 0.0 0.0 0.0 0.0 0.0 0.0 0.0 0.0 0.0 0.0 0.0 0.0 58.3588737031 50.0 50.0 50.0 50.3243681088 0.0 0.0 0.0 0.0 0.0 0.0 0.0 0.0 0.0 0.0 0.0 0.0 0.0 0.0 0.0 0.0 0.0 0.0 0.0 0.0 0.0 0.0 3.09109495536 50.0 50.0 50.0 50.0 19.8760637274 0.0 0.0 0.0 0.0 0.0 0.0 0.0 0.0 0.0 0.0 0.0 0.0 0.0 0.0 0.0 0.0 0.0 0.0 0.0 0.0 0.0 0.0 50.09488757 50.0 50.0 50.0 53.3500138215 0.0 0.0 0.0 0.0 0.0 0.0 0.0 0.0 0.0 0.0 0.0 0.0 0.0 0.0 0.0 0.0 0.0 0.0 0.0 0.0 0.0 0.0 16.5888043472 38.3090367212 46.4280274251 50.3867841207 52.4845180803 50.7350127886 49.3589515706 48.2718504583 47.538147737 46.9828752446 46.5217123423 46.2742318891 46.0748986011 45.8984697334 45.7975294666 45.6982564931 45.6379003637 45.589176985 45.554285769 45.5086215108 45.5086215108 45.4653397677 45.4562401264 45.4562401264 45.4562401264 45.4562401264 </DataArray>
<DataArray Name="function coefficient of variation" format="ascii" type="Float32">0.0 0.0 0.0 0.0 0.0 0.0 0.0 0.0 0.0 0.0 0.0 0.0 0.0 0.0 0.0 0.0 0.0 0.0 0.0 0.0 0.0 0.0 0.0 0.0 0.0 0.0 0.0 0.0 0.0 0.0 0.0 0.0 0.0 0.0 0.0 0.0 0.0 0.0 0.0 0.0 0.0 0.0 0.0 0.0 0.0 0.0 0.0 0.0 0.0 0.0 0.0 0.0 0.0 0.0 0.0 0.0 0.0 0.0 0.0 0.0 0.0 0.0 0.0 0.0 0.0 0.0 0.0 0.0 0.0 0.0 0.0 0.0 0.0 0.0 0.0 0.0 0.0 0.0 0.0 0.0 0.0 0.0 0.0 0.0 0.0 0.0 0.0 0.0 0.0 0.0 0.0 0.0 0.0 0.0 0.0 0.0 0.0 0.0 0.0 0.0 0.0 0.0 0.0 0.0 0.0 0.0 0.0 0.0 0.0 0.0 0.0 0.0 0.0 0.0 0.0 0.0 0.0 0.0 0.0 0.0 0.0 0.0 0.0 0.0 0.0 0.0 0.0 0.0 0.0 0.0 0.0 0.0 0.0 0.0 0.0 0.0 0.0 0.0 0.0 0.0 0.0 0.0 0.0 0.0 0.0 0.0 0.0 0.0 0.0 0.0 0.0 0.0 0.0 0.0 0.0 0.0 0.0 0.0 0.0 0.0 0.0 0.0 0.0 0.0 0.0 0.0 0.0 0.0 0.0 0.0 0.0 0.0 0.0 0.0 0.0 0.0 0.0 0.0 0.0 0.0 0.0 0.0 0.0 0.0 0.0 0.0 0.0 0.0 0.0 0.0 0.0 0.0 0.0 0.0 0.0 0.0 0.0 0.0 0.0 0.0 0.0 0.0 0.0 0.0 0.0 0.0 0.0 0.0 0.0 0.0 0.0 0.0 0.0 0.0 0.0 0.0 0.0 0.0 0.0 0.0 0.0 0.0 0.0 0.0 0.0 0.0 0.0 0.0 0.0 0.0 0.0 0.0 0.0 0.0 0.0 0.0 0.0 0.0 0.0 0.0 0.0 0.0 0.0 0.0 0.0 0.0 0.0 0.0 0.0 0.0 0.0 0.0 0.0 0.0 0.0 0.0 0.0 0.0 0.0 0.0 0.0 0.0 0.0 0.0 0.0 0.0 0.0 0.0 0.0 0.0 0.0 0.0 0.0 0.0 0.0 0.0 0.0 0.0 0.0 0.0 0.0 0.0 0.0 0.0 0.0 0.0 0.0 0.0 0.0 0.0 0.0 0.0 0.0 0.0 0.0 0.0 0.0 0.0 0.0 0.0 </DataArray>
<DataArray Name="time" format="ascii" type="Float32">0.0 3.6447229675 7.289445935 10.9341689025 14.57889187 18.2236148375 21.868337805 25.5130607725 29.15778374 32.8025067075 36.447229675 40.0919526425 43.73667561 47.3813985775 51.026121545 54.6708445125 58.31556748 61.9602904475 65.605013415 69.2497363825 72.89445935 76.5391823175 80.183905285 83.8286282525 87.47335122 91.1180741875 94.7627971549 98.4075201224 102.05224309 105.696966057 109.341689025 112.986411992 116.63113496 120.275857927 123.920580895 127.565303862 131.21002683 134.854749797 138.499472765 142.144195732 145.7889187 149.433641667 153.078364635 156.723087602 160.36781057 164.012533537 167.657256505 171.301979472 174.94670244 178.591425407 182.236148375 185.880871342 189.52559431 193.170317277 196.815040245 200.459763212 204.10448618 207.749209147 211.393932115 215.038655082 218.68337805 222.328101017 225.972823985 229.617546952 233.26226992 236.906992887 240.551715855 244.196438822 247.84116179 251.485884757 255.130607725 258.775330692 262.42005366 266.064776627 269.709499595 273.354222562 276.99894553 280.643668497 284.288391465 287.933114432 291.5778374 295.222560367 298.867283335 302.512006302 306.15672927 309.801452237 313.446175205 317.090898172 320.73562114 324.380344107 328.025067075 331.669790042 335.31451301 338.959235977 342.603958945 346.248681912 349.89340488 353.538127847 357.182850815 360.827573782 364.47229675 368.117019717 371.761742685 375.406465652 379.05118862 382.695911587 386.340634555 389.985357522 393.63008049 397.274803457 400.919526425 404.564249392 408.20897236 411.853695327 415.498418295 419.143141262 422.78786423 426.432587197 430.077310165 433.722033132 437.3667561 441.011479067 444.656202035 448.300925002 451.94564797 455.590370937 459.235093905 462.879816872 466.52453984 470.169262807 473.813985775 477.458708742 481.10343171 484.748154677 488.392877645 492.037600612 495.68232358 499.327046547 502.971769515 506.616492482 510.26121545 513.905938417 517.550661385 521.195384352 524.84010732 528.484830287 532.129553255 535.774276222 539.41899919 543.063722157 546.708445125 550.353168092 553.99789106 557.642614027 561.287336995 564.932059962 568.57678293 572.221505897 575.866228865 579.510951832 583.1556748 586.800397767 590.445120735 594.089843702 597.73456667 601.379289637 605.024012605 608.668735572 612.31345854 615.958181507 619.602904475 623.247627442 626.89235041 630.537073377 634.181796345 637.826519312 641.47124228 645.115965247 648.760688215 652.405411182 656.05013415 659.694857117 663.339580085 666.984303052 670.62902602 674.273748987 677.918471955 681.563194922 685.20791789 688.852640857 692.497363825 696.142086792 699.78680976 703.431532727 707.076255695 710.720978662 714.36570163 718.010424597 721.655147565 725.299870532 728.9445935 732.589316467 736.234039435 739.878762402 743.52348537 747.168208337 750.812931305 754.457654272 758.10237724 761.747100207 765.391823175 769.036546142 772.68126911 776.325992077 779.970715045 783.615438012 787.26016098 790.904883947 794.549606915 798.194329882 801.83905285 805.483775817 809.128498785 812.773221752 816.41794472 820.062667687 823.707390655 827.352113622 830.99683659 834.641559557 838.286282525 841.931005492 845.57572846 849.220451427 852.865174395 856.509897362 860.15462033 863.799343297 867.444066265 871.088789232 874.7335122 878.378235167 882.022958135 885.667681102 889.31240407 892.957127037 896.601850005 900.246572972 903.89129594 907.536018907 911.180741875 914.825464842 918.47018781 922.114910777 925.759633745 929.404356712 933.04907968 936.693802647 940.338525615 943.983248582 947.627971549 951.272694517 954.917417484 958.562140452 962.206863419 965.851586387 969.496309354 973.141032322 976.785755289 980.430478257 984.075201224 987.719924192 991.364647159 995.009370127 998.654093094 1002.29881606 1005.94353903 1009.588262 1013.23298496 1016.87770793 1020.5224309 1024.16715387 1027.81187683 1031.4565998 1035.10132277 1038.74604574 1042.3907687 1046.03549167 1049.68021464 1053.32493761 1056.96966057 1060.61438354 1064.25910651 1067.90382948 1071.54855244 1075.19327541 1078.83799838 1082.48272135 1086.12744431 1089.77216728 </DataArray>
<DataArray Name="function variance" format="ascii" type="Float32">0.0 0.0 nan 0.0 0.0 0.0 0.0 0.0 0.0 0.0 0.0 0.0 0.0 0.0 0.0 0.0 0.0 0.0 0.0 0.0 0.0 0.0 0.0 0.0 0.0 0.0 0.0 0.0 0.0 0.0 0.0 0.0 0.0 0.0 0.0 0.0 0.0 0.0 0.0 0.0 0.0 0.0 0.0 0.0 0.0 0.0 0.0 0.0 0.0 0.0 0.0 0.0 0.0 0.0 0.0 362.428954233 0.0 0.0 0.0 89.5057545403 0.0 0.0 0.0 0.0 0.0 0.0 0.0 0.0 0.0 0.0 0.0 0.0 0.0 0.0 0.0 0.0 0.0 0.0 0.0 0.0 0.0 0.0 589.954296885 0.0 0.0 0.0 451.195867425 0.0 0.0 0.0 0.0 0.0 0.0 0.0 0.0 0.0 0.0 0.0 0.0 0.0 0.0 0.0 0.0 0.0 0.0 0.0 0.0 0.0 0.0 0.0 89.6164878332 0.0 0.0 0.0 150.840254609 0.0 0.0 0.0 0.0 0.0 0.0 0.0 0.0 0.0 0.0 0.0 0.0 0.0 0.0 0.0 0.0 0.0 0.0 0.0 0.0 0.0 0.0 208.482356157 0.0 0.0 0.0 140.886236987 0.0 0.0 0.0 0.0 0.0 0.0 0.0 0.0 0.0 0.0 0.0 0.0 0.0 0.0 0.0 0.0 0.0 0.0 0.0 0.0 0.0 0.0 0.0 460.829909073 0.0 0.0 0.0 591.11428456 0.0 0.0 0.0 0.0 0.0 0.0 0.0 0.0 0.0 0.0 0.0 0.0 0.0 0.0 0.0 0.0 0.0 0.0 0.0 0.0 0.0 0.0 507.859961192 0.0 0.0 0.0 624.893397588 0.0 0.0 0.0 0.0 0.0 0.0 0.0 0.0 0.0 0.0 0.0 0.0 0.0 0.0 0.0 0.0 0.0 0.0 0.0 0.0 0.0 0.0 8.52630258773 0.0 0.0 0.0 0.0 222.877049283 0.0 0.0 0.0 0.0 0.0 0.0 0.0 0.0 0.0 0.0 0.0 0.0 0.0 0.0 0.0 0.0 0.0 0.0 0.0 0.0 0.0 0.0 624.990962013 0.0 0.0 0.0 611.950742139 0.0 0.0 0.0 0.0 0.0 0.0 0.0 0.0 0.0 0.0 0.0 0.0 0.0 0.0 0.0 0.0 0.0 0.0 0.0 0.0 0.0 0.0 168.078779398 530.466668179 613.798113827 624.848037597 618.122794529 624.443260076 624.599269803 622.203866912 619.472529382 616.856300834 614.344585508 612.875101546 611.631562265 610.487183235 609.814262566 609.139700325 608.723446391 608.384058638 608.13918391 607.816395495 607.816395495 607.508044572 607.442919537 607.442919537 607.442919537 607.442919537 </DataArray>
<DataArray Name="1 stddev of function" format="ascii" type="Float32">0.0 0.0 nan 0.0 0.0 0.0 0.0 0.0 0.0 0.0 0.0 0.0 0.0 0.0 0.0 0.0 0.0 0.0 0.0 0.0 0.0 0.0 0.0 0.0 0.0 0.0 0.0 0.0 0.0 0.0 0.0 0.0 0.0 0.0 0.0 0.0 0.0 0.0 0.0 0.0 0.0 0.0 0.0 0.0 0.0 0.0 0.0 0.0 0.0 0.0 0.0 0.0 0.0 0.0 0.0 19.03756692 0.0 0.0 0.0 9.46074809623 0.0 0.0 0.0 0.0 0.0 0.0 0.0 0.0 0.0 0.0 0.0 0.0 0.0 0.0 0.0 0.0 0.0 0.0 0.0 0.0 0.0 0.0 24.288974801 0.0 0.0 0.0 21.2413715994 0.0 0.0 0.0 0.0 0.0 0.0 0.0 0.0 0.0 0.0 0.0 0.0 0.0 0.0 0.0 0.0 0.0 0.0 0.0 0.0 0.0 0.0 0.0 9.46659853555 0.0 0.0 0.0 12.2817040597 0.0 0.0 0.0 0.0 0.0 0.0 0.0 0.0 0.0 0.0 0.0 0.0 0.0 0.0 0.0 0.0 0.0 0.0 0.0 0.0 0.0 0.0 14.4389181089 0.0 0.0 0.0 11.8695508334 0.0 0.0 0.0 0.0 0.0 0.0 0.0 0.0 0.0 0.0 0.0 0.0 0.0 0.0 0.0 0.0 0.0 0.0 0.0 0.0 0.0 0.0 0.0 21.466949226 0.0 0.0 0.0 24.312841968 0.0 0.0 0.0 0.0 0.0 0.0 0.0 0.0 0.0 0.0 0.0 0.0 0.0 0.0 0.0 0.0 0.0 0.0 0.0 0.0 0.0 0.0 22.5357485164 0.0 0.0 0.0 24.9978678608 0.0 0.0 0.0 0.0 0.0 0.0 0.0 0.0 0.0 0.0 0.0 0.0 0.0 0.0 0.0 0.0 0.0 0.0 0.0 0.0 0.0 0.0 2.91998331977 0.0 0.0 0.0 0.0 14.929067261 0.0 0.0 0.0 0.0 0.0 0.0 0.0 0.0 0.0 0.0 0.0 0.0 0.0 0.0 0.0 0.0 0.0 0.0 0.0 0.0 0.0 0.0 24.9998192396 0.0 0.0 0.0 24.7376381682 0.0 0.0 0.0 0.0 0.0 0.0 0.0 0.0 0.0 0.0 0.0 0.0 0.0 0.0 0.0 0.0 0.0 0.0 0.0 0.0 0.0 0.0 12.9645200219 23.0318620215 24.7749493204 24.9969605672 24.8620754268 24.9888627207 24.991984111 24.9440146511 24.8892050773 24.836591973 24.7859755811 24.7563143773 24.7311860262 24.7080388383 24.6944176397 24.6807556676 24.6723214633 24.6654425997 24.6604781768 24.6539326578 24.6539326578 24.6476782796 24.6463571251 24.6463571251 24.6463571251 24.6463571251 </DataArray>
<DataArray Name="function median" format="ascii" type="Float32">50.0 50.0 nan 50.0 0.0 0.0 0.0 0.0 0.0 0.0 0.0 0.0 0.0 0.0 0.0 0.0 0.0 0.0 0.0 0.0 0.0 0.0 0.0 0.0 0.0 0.0 0.0 0.0 50.0 50.0 50.0 50.0 0.0 0.0 0.0 0.0 0.0 0.0 0.0 0.0 0.0 0.0 0.0 0.0 0.0 0.0 0.0 0.0 0.0 0.0 0.0 0.0 0.0 0.0 0.0 0.0 50.0 50.0 50.0 50.0 0.0 0.0 0.0 0.0 0.0 0.0 0.0 0.0 0.0 0.0 0.0 0.0 0.0 0.0 0.0 0.0 0.0 0.0 0.0 0.0 0.0 0.0 0.0 50.0 50.0 50.0 50.0 0.0 0.0 0.0 0.0 0.0 0.0 0.0 0.0 0.0 0.0 0.0 0.0 0.0 0.0 0.0 0.0 0.0 0.0 0.0 0.0 0.0 0.0 0.0 50.0 50.0 50.0 50.0 0.0 0.0 0.0 0.0 0.0 0.0 0.0 0.0 0.0 0.0 0.0 0.0 0.0 0.0 0.0 0.0 0.0 0.0 0.0 0.0 0.0 0.0 0.0 0.0 50.0 50.0 50.0 50.0 0.0 0.0 0.0 0.0 0.0 0.0 0.0 0.0 0.0 0.0 0.0 0.0 0.0 0.0 0.0 0.0 0.0 0.0 0.0 0.0 0.0 0.0 0.0 50.0 50.0 50.0 50.0 0.0 0.0 0.0 0.0 0.0 0.0 0.0 0.0 0.0 0.0 0.0 0.0 0.0 0.0 0.0 0.0 0.0 0.0 0.0 0.0 0.0 0.0 0.0 50.0 50.0 50.0 50.0 50.0 0.0 0.0 0.0 0.0 0.0 0.0 0.0 0.0 0.0 0.0 0.0 0.0 0.0 0.0 0.0 0.0 0.0 0.0 0.0 0.0 0.0 0.0 0.0 50.0 50.0 50.0 50.0 0.0 0.0 0.0 0.0 0.0 0.0 0.0 0.0 0.0 0.0 0.0 0.0 0.0 0.0 0.0 0.0 0.0 0.0 0.0 0.0 0.0 0.0 0.0 50.0 50.0 50.0 50.0 50.0 0.0 0.0 0.0 0.0 0.0 0.0 0.0 0.0 0.0 0.0 0.0 0.0 0.0 0.0 0.0 0.0 0.0 0.0 0.0 0.0 0.0 0.0 0.0 0.0 0.0 50.0 50.0 50.0 0.0 0.0 0.0 0.0 0.0 0.0 0.0 0.0 0.0 0.0 0.0 0.0 0.0 0.0 0.0 0.0 0.0 0.0 0.0 0.0 </DataArray>
<DataArray Name="function mean" format="ascii" type="Float32">50.0 50.0 nan 50.0 0.0 0.0 0.0 0.0 0.0 0.0 0.0 0.0 0.0 0.0 0.0 0.0 0.0 0.0 0.0 0.0 0.0 0.0 0.0 0.0 0.0 0.0 0.0 0.0 50.0 50.0 50.0 50.0 0.0 0.0 0.0 0.0 0.0 0.0 0.0 0.0 0.0 0.0 0.0 0.0 0.0 0.0 0.0 0.0 0.0 0.0 0.0 0.0 0.0 0.0 0.0 8.79595588235 50.0 50.0 50.0 48.1407485933 0.0 0.0 0.0 0.0 0.0 0.0 0.0 0.0 0.0 0.0 0.0 0.0 0.0 0.0 0.0 0.0 0.0 0.0 0.0 0.0 0.0 0.0 19.0800588588 50.0 50.0 50.0 38.1834795322 0.0 0.0 0.0 0.0 0.0 0.0 0.0 0.0 0.0 0.0 0.0 0.0 0.0 0.0 0.0 0.0 0.0 0.0 0.0 0.0 0.0 0.0 0.0 48.1383558657 50.0 50.0 50.0 3.22479057757 0.0 0.0 0.0 0.0 0.0 0.0 0.0 0.0 0.0 0.0 0.0 0.0 0.0 0.0 0.0 0.0 0.0 0.0 0.0 0.0 0.0 0.0 4.59123610203 50.0 50.0 50.0 47.0025853711 0.0 0.0 0.0 0.0 0.0 0.0 0.0 0.0 0.0 0.0 0.0 0.0 0.0 0.0 0.0 0.0 0.0 0.0 0.0 0.0 0.0 0.0 0.0 37.8128876888 50.0 50.0 50.0 19.1788561743 0.0 0.0 0.0 0.0 0.0 0.0 0.0 0.0 0.0 0.0 0.0 0.0 0.0 0.0 0.0 0.0 0.0 0.0 0.0 0.0 0.0 0.0 35.8231251867 50.0 50.0 50.0 25.326500248 0.0 0.0 0.0 0.0 0.0 0.0 0.0 0.0 0.0 0.0 0.0 0.0 0.0 0.0 0.0 0.0 0.0 0.0 0.0 0.0 0.0 0.0 0.171111635591 50.0 50.0 50.0 50.0 4.94699646643 0.0 0.0 0.0 0.0 0.0 0.0 0.0 0.0 0.0 0.0 0.0 0.0 0.0 0.0 0.0 0.0 0.0 0.0 0.0 0.0 0.0 0.0 25.0950683304 50.0 50.0 50.0 28.6123756533 0.0 0.0 0.0 0.0 0.0 0.0 0.0 0.0 0.0 0.0 0.0 0.0 0.0 0.0 0.0 0.0 0.0 0.0 0.0 0.0 0.0 0.0 3.62428432538 15.2771746997 21.6530781047 25.3898235535 27.6224426534 25.7461500679 24.3669674597 23.3278358072 22.6489426596 22.1462832716 21.7357367612 21.5179175118 21.3437125749 21.1904308951 21.1031118268 21.0175008255 20.9655789003 20.9237343853 20.8938075922 20.854688853 20.854688853 20.8176614881 20.8098830013 20.8098830013 20.8098830013 20.8098830013 </DataArray>
</PointData>
<CellData/>
<Cells>
<DataArray Name="connectivity" format="ascii" type="Int32">0</DataArray>
<DataArray Name="offsets" format="ascii" type="Int32">0</DataArray>
<DataArray Name="types" format="ascii" type="UInt8">11</DataArray>
</Cells>
</Piece>
</UnstructuredGrid>
</VTKFile>
