<?xml version="1.0" ?>
<VTKFile byte_order="LittleEndian" type="UnstructuredGrid" version="0.1">
<UnstructuredGrid>
<Piece NumberOfCells="0" NumberOfPoints="100">
<Points>
<DataArray NumberOfComponents="3" format="ascii" type="Float32">36.8995996695 36.8995996695 36.8995996695 67.4715080579 67.4715080579 67.4715080579 80.6109968339 80.6109968339 80.6109968339 80.1195550778 80.1195550778 80.1195550778 75.1004275086 75.1004275086 75.1004275086 69.7189147629 69.7189147629 69.7189147629 64.9569561825 64.9569561825 64.9569561825 60.4185362129 60.4185362129 60.4185362129 55.3796105441 55.3796105441 55.3796105441 52.5050384118 52.5050384118 52.5050384118 54.3416016117 54.3416016117 54.3416016117 59.7268597027 59.7268597027 59.7268597027 65.5222455397 65.5222455397 65.5222455397 68.0563547198 68.0563547198 68.0563547198 71.7250768612 71.7250768612 71.7250768612 72.0324665674 72.0324665674 72.0324665674 71.6420978265 71.6420978265 71.6420978265 70.8502348798 70.8502348798 70.8502348798 69.5965705982 69.5965705982 69.5965705982 71.1053561279 71.1053561279 71.1053561279 72.0601118022 72.0601118022 72.0601118022 69.5227610261 69.5227610261 69.5227610261 69.1637596566 69.1637596566 69.1637596566 70.8055903277 70.8055903277 70.8055903277 71.7481805663 71.7481805663 71.7481805663 72.4031590774 72.4031590774 72.4031590774 75.1675600444 75.1675600444 75.1675600444 76.96596076 76.96596076 76.96596076 77.5900114993 77.5900114993 77.5900114993 76.7361642517 76.7361642517 76.7361642517 75.2910970936 75.2910970936 75.2910970936 74.3995954191 74.3995954191 74.3995954191 73.7206474324 73.7206474324 73.7206474324 75.8070223331 75.8070223331 75.8070223331 75.8126022665 75.8126022665 75.8126022665 74.8633852419 74.8633852419 74.8633852419 73.6166660125 73.6166660125 73.6166660125 73.4450824278 73.4450824278 73.4450824278 72.7628602649 72.7628602649 72.7628602649 72.0517493234 72.0517493234 72.0517493234 72.6071029426 72.6071029426 72.6071029426 72.5766829512 72.5766829512 72.5766829512 71.579326532 71.579326532 71.579326532 73.7510225843 73.7510225843 73.7510225843 73.5559702329 73.5559702329 73.5559702329 73.7593495667 73.7593495667 73.7593495667 74.6230853732 74.6230853732 74.6230853732 73.8703266672 73.8703266672 73.8703266672 73.73340715 73.73340715 73.73340715 73.2637361409 73.2637361409 73.2637361409 73.2850536313 73.2850536313 73.2850536313 75.142944565 75.142944565 75.142944565 74.975238362 74.975238362 74.975238362 75.1826318075 75.1826318075 75.1826318075 74.6219737685 74.6219737685 74.6219737685 74.7788852353 74.7788852353 74.7788852353 76.7935172361 76.7935172361 76.7935172361 76.5966333683 76.5966333683 76.5966333683 75.5410774737 75.5410774737 75.5410774737 75.5351974808 75.5351974808 75.5351974808 75.2594797299 75.2594797299 75.2594797299 76.0569182569 76.0569182569 76.0569182569 77.4343781846 77.4343781846 77.4343781846 79.07984163 79.07984163 79.07984163 79.2738610334 79.2738610334 79.2738610334 79.7389767817 79.7389767817 79.7389767817 80.7044471211 80.7044471211 80.7044471211 82.4293539772 82.4293539772 82.4293539772 80.9405879364 80.9405879364 80.9405879364 78.2147666199 78.2147666199 78.2147666199 77.1947040248 77.1947040248 77.1947040248 75.0057315317 75.0057315317 75.0057315317 75.0771966805 75.0771966805 75.0771966805 78.1505860469 78.1505860469 78.1505860469 77.1228033192 77.1228033192 77.1228033192 79.2959306968 79.2959306968 79.2959306968 79.4865967708 79.4865967708 79.4865967708 80.0921590933 80.0921590933 80.0921590933 79.3394924609 79.3394924609 79.3394924609 77.269844598 77.269844598 77.269844598 75.3152883304 75.3152883304 75.3152883304 75.0534856318 75.0534856318 75.0534856318 75.0904319129 75.0904319129 75.0904319129 73.6185857045 73.6185857045 73.6185857045 75.2281836538 75.2281836538 75.2281836538 75.3635209521 75.3635209521 75.3635209521 73.9380184378 73.9380184378 73.9380184378 72.469438404 72.469438404 72.469438404 72.4805627044 72.4805627044 72.4805627044 72.7871449277 72.7871449277 72.7871449277 72.577390649 72.577390649 72.577390649 73.470679349 73.470679349 73.470679349 72.7926554836 72.7926554836 72.7926554836 70.8824667994 70.8824667994 70.8824667994 70.2001524119 70.2001524119 70.2001524119 67.197070487 67.197070487 67.197070487 62.7629972937 62.7629972937 62.7629972937 61.1612105251 61.1612105251 61.1612105251 60.44979753 60.44979753 60.44979753 60.3657792011 60.3657792011 60.3657792011 </DataArray>
</Points>
<PointData>
<DataArray Name="Points" format="ascii" type="Float32">36.8995996695 36.8995996695 36.8995996695 67.4715080579 67.4715080579 67.4715080579 80.6109968339 80.6109968339 80.6109968339 80.1195550778 80.1195550778 80.1195550778 75.1004275086 75.1004275086 75.1004275086 69.7189147629 69.7189147629 69.7189147629 64.9569561825 64.9569561825 64.9569561825 60.4185362129 60.4185362129 60.4185362129 55.3796105441 55.3796105441 55.3796105441 52.5050384118 52.5050384118 52.5050384118 54.3416016117 54.3416016117 54.3416016117 59.7268597027 59.7268597027 59.7268597027 65.5222455397 65.5222455397 65.5222455397 68.0563547198 68.0563547198 68.0563547198 71.7250768612 71.7250768612 71.7250768612 72.0324665674 72.0324665674 72.0324665674 71.6420978265 71.6420978265 71.6420978265 70.8502348798 70.8502348798 70.8502348798 69.5965705982 69.5965705982 69.5965705982 71.1053561279 71.1053561279 71.1053561279 72.0601118022 72.0601118022 72.0601118022 69.5227610261 69.5227610261 69.5227610261 69.1637596566 69.1637596566 69.1637596566 70.8055903277 70.8055903277 70.8055903277 71.7481805663 71.7481805663 71.7481805663 72.4031590774 72.4031590774 72.4031590774 75.1675600444 75.1675600444 75.1675600444 76.96596076 76.96596076 76.96596076 77.5900114993 77.5900114993 77.5900114993 76.7361642517 76.7361642517 76.7361642517 75.2910970936 75.2910970936 75.2910970936 74.3995954191 74.3995954191 74.3995954191 73.7206474324 73.7206474324 73.7206474324 75.8070223331 75.8070223331 75.8070223331 75.8126022665 75.8126022665 75.8126022665 74.8633852419 74.8633852419 74.8633852419 73.6166660125 73.6166660125 73.6166660125 73.4450824278 73.4450824278 73.4450824278 72.7628602649 72.7628602649 72.7628602649 72.0517493234 72.0517493234 72.0517493234 72.6071029426 72.6071029426 72.6071029426 72.5766829512 72.5766829512 72.5766829512 71.579326532 71.579326532 71.579326532 73.7510225843 73.7510225843 73.7510225843 73.5559702329 73.5559702329 73.5559702329 73.7593495667 73.7593495667 73.7593495667 74.6230853732 74.6230853732 74.6230853732 73.8703266672 73.8703266672 73.8703266672 73.73340715 73.73340715 73.73340715 73.2637361409 73.2637361409 73.2637361409 73.2850536313 73.2850536313 73.2850536313 75.142944565 75.142944565 75.142944565 74.975238362 74.975238362 74.975238362 75.1826318075 75.1826318075 75.1826318075 74.6219737685 74.6219737685 74.6219737685 74.7788852353 74.7788852353 74.7788852353 76.7935172361 76.7935172361 76.7935172361 76.5966333683 76.5966333683 76.5966333683 75.5410774737 75.5410774737 75.5410774737 75.5351974808 75.5351974808 75.5351974808 75.2594797299 75.2594797299 75.2594797299 76.0569182569 76.0569182569 76.0569182569 77.4343781846 77.4343781846 77.4343781846 79.07984163 79.07984163 79.07984163 79.2738610334 79.2738610334 79.2738610334 79.7389767817 79.7389767817 79.7389767817 80.7044471211 80.7044471211 80.7044471211 82.4293539772 82.4293539772 82.4293539772 80.9405879364 80.9405879364 80.9405879364 78.2147666199 78.2147666199 78.2147666199 77.1947040248 77.1947040248 77.1947040248 75.0057315317 75.0057315317 75.0057315317 75.0771966805 75.0771966805 75.0771966805 78.1505860469 78.1505860469 78.1505860469 77.1228033192 77.1228033192 77.1228033192 79.2959306968 79.2959306968 79.2959306968 79.4865967708 79.4865967708 79.4865967708 80.0921590933 80.0921590933 80.0921590933 79.3394924609 79.3394924609 79.3394924609 77.269844598 77.269844598 77.269844598 75.3152883304 75.3152883304 75.3152883304 75.0534856318 75.0534856318 75.0534856318 75.0904319129 75.0904319129 75.0904319129 73.6185857045 73.6185857045 73.6185857045 75.2281836538 75.2281836538 75.2281836538 75.3635209521 75.3635209521 75.3635209521 73.9380184378 73.9380184378 73.9380184378 72.469438404 72.469438404 72.469438404 72.4805627044 72.4805627044 72.4805627044 72.7871449277 72.7871449277 72.7871449277 72.577390649 72.577390649 72.577390649 73.470679349 73.470679349 73.470679349 72.7926554836 72.7926554836 72.7926554836 70.8824667994 70.8824667994 70.8824667994 70.2001524119 70.2001524119 70.2001524119 67.197070487 67.197070487 67.197070487 62.7629972937 62.7629972937 62.7629972937 61.1612105251 61.1612105251 61.1612105251 60.44979753 60.44979753 60.44979753 60.3657792011 60.3657792011 60.3657792011 </DataArray>
<DataArray Name="1 stddev of GFP" format="ascii" type="Float32">36.8995996695 67.4715080579 80.6109968339 80.1195550778 75.1004275086 69.7189147629 64.9569561825 60.4185362129 55.3796105441 52.5050384118 54.3416016117 59.7268597027 65.5222455397 68.0563547198 71.7250768612 72.0324665674 71.6420978265 70.8502348798 69.5965705982 71.1053561279 72.0601118022 69.5227610261 69.1637596566 70.8055903277 71.7481805663 72.4031590774 75.1675600444 76.96596076 77.5900114993 76.7361642517 75.2910970936 74.3995954191 73.7206474324 75.8070223331 75.8126022665 74.8633852419 73.6166660125 73.4450824278 72.7628602649 72.0517493234 72.6071029426 72.5766829512 71.579326532 73.7510225843 73.5559702329 73.7593495667 74.6230853732 73.8703266672 73.73340715 73.2637361409 73.2850536313 75.142944565 74.975238362 75.1826318075 74.6219737685 74.7788852353 76.7935172361 76.5966333683 75.5410774737 75.5351974808 75.2594797299 76.0569182569 77.4343781846 79.07984163 79.2738610334 79.7389767817 80.7044471211 82.4293539772 80.9405879364 78.2147666199 77.1947040248 75.0057315317 75.0771966805 78.1505860469 77.1228033192 79.2959306968 79.4865967708 80.0921590933 79.3394924609 77.269844598 75.3152883304 75.0534856318 75.0904319129 73.6185857045 75.2281836538 75.3635209521 73.9380184378 72.469438404 72.4805627044 72.7871449277 72.577390649 73.470679349 72.7926554836 70.8824667994 70.2001524119 67.197070487 62.7629972937 61.1612105251 60.44979753 60.3657792011 </DataArray>
<DataArray Name="GFP variance" format="ascii" type="Float32">1361.58045577 4552.4043996 6498.13281056 6419.14310586 5640.07421197 4860.72707572 4219.40615649 3650.39951811 3066.90126401 2756.77905863 2953.00966572 3567.29776994 4293.16466056 4631.66741775 5144.48665075 5188.67623978 5132.59018098 5019.75578252 4843.68263902 5055.97167007 5192.65971295 4833.41430069 4783.62564984 5013.43162165 5147.80141457 5242.21744439 5650.16208303 5923.75911571 6020.20988446 5888.43890407 5668.74930156 5535.29979852 5434.73385784 5746.70463501 5747.55066241 5604.52644988 5419.4135148 5394.18013283 5294.43383392 5191.45458056 5271.79139771 5267.3749082 5123.59998677 5439.21333223 5410.4807569 5440.44164851 5568.60487061 5456.82516192 5436.61532994 5367.57503333 5370.69908574 5646.4621179 5621.28636744 5652.42812551 5568.43896911 5591.88167703 5897.24428949 5867.04424336 5706.45438588 5705.56605846 5663.98928922 5784.65481474 5996.08292484 6253.62135222 6284.34504315 6358.30441819 6513.20778512 6794.59839709 6551.37877549 6117.54971741 5959.02232948 5625.85976261 5636.5854614 6107.51409948 5947.92679182 6287.84462508 6318.1190662 6414.75394823 6294.75506395 5970.62888421 5672.39265629 5633.02570548 5638.57296486 5419.69616114 5659.27961585 5679.66029029 5466.8305705 5251.81950259 5253.43196994 5297.96846672 5267.47763341 5397.940724 5298.77069236 5024.32409957 4928.06139866 4515.44628203 3939.19382929 3740.6936729 3654.17802142 3644.02729856 </DataArray>
<DataArray Name="GFP median" format="ascii" type="Float32">60.0 162.0 198.0 188.0 169.0 147.0 126.0 105.0 88.0 76.0 71.0 71.0 77.0 86.0 92.0 96.0 99.0 97.0 94.0 88.0 83.0 83.0 81.0 83.0 82.0 86.0 87.0 86.0 86.0 82.0 81.0 80.0 78.0 78.0 77.0 78.0 80.0 78.0 78.0 74.0 75.0 73.0 75.0 75.0 75.0 70.0 72.0 70.0 67.0 73.0 73.0 67.0 67.0 65.0 63.0 68.0 65.0 64.0 64.0 61.0 61.0 60.0 57.0 59.0 57.0 58.0 56.0 57.0 57.0 54.0 54.0 55.0 47.0 54.0 45.0 49.0 44.0 49.0 47.0 48.0 43.0 41.0 45.0 27.0 43.0 39.0 38.0 31.0 35.0 29.0 5.0 29.0 36.0 0.0 0.0 0.0 0.0 0.0 0.0 0.0 </DataArray>
<DataArray Name="GFP mean" format="ascii" type="Float32">62.4070944419 174.17075013 209.628708428 200.033022423 180.17226236 158.959319005 137.63209795 117.761163081 101.296210655 89.9648153396 84.8070005436 85.2890110668 92.714925231 100.863715755 107.51378803 110.615503177 111.901290795 109.798202788 108.736297154 101.542991533 97.0402485459 95.7622837535 94.9753914989 95.0408475574 95.5905463763 97.993099661 99.906052437 98.7016940367 98.0839834571 96.7868801455 95.5134888414 93.5870865079 91.0917990045 91.4305232696 89.38806914 89.4085688628 90.4938209027 86.4766273078 88.8547823783 85.3915990116 85.7467564811 84.2770932445 83.7889956001 83.6836376487 83.9479816995 80.7394909057 83.3331313768 80.6269570168 77.9257898264 80.8922440587 81.142264892 77.1666354484 78.9225396365 77.059646539 75.6309065004 78.8253389707 76.404620092 76.0105315007 75.6569453293 73.1746954468 74.5899521993 72.4737128397 72.0253590343 72.4346481979 70.6445667895 72.507456307 71.5383356008 73.196048309 73.4264663462 69.5476902936 69.2338747869 69.0643928399 65.7291137503 70.7121732895 64.2136088987 66.9717323775 64.4362276499 67.5952508917 65.6596891093 65.1256785972 62.9352521375 62.2520594619 63.4307412791 56.555948617 61.7664511689 59.8964906825 58.5430172928 55.7615172382 57.9675851287 57.0728465917 55.8709765103 58.2769651564 59.3129637495 52.4237050758 49.9131957088 42.5546108099 34.506701011 32.0880128228 31.0761328357 30.9589581415 </DataArray>
<DataArray Name="GFP +1 stddev" format="ascii" type="Float32">99.3066941114 241.642258188 290.239705262 280.152577501 255.272689869 228.678233768 202.589054132 178.179699294 156.6758212 142.469853751 139.148602155 145.015870769 158.237170771 168.920070475 179.238864891 182.647969745 183.543388621 180.648437668 178.332867753 172.648347661 169.100360348 165.28504478 164.139151155 165.846437885 167.338726943 170.396258738 175.073612481 175.667654797 175.673994956 173.523044397 170.804585935 167.986681927 164.812446437 167.237545603 165.200671406 164.271954105 164.110486915 159.921709736 161.617642643 157.443348335 158.353859424 156.853776196 155.368322132 157.434660233 157.503951932 154.498840472 157.95621675 154.497283684 151.659196976 154.1559802 154.427318523 152.309580013 153.897777999 152.242278347 150.252880269 153.604224206 153.198137328 152.607164869 151.198022803 148.709892928 149.849431929 148.530631097 149.459737219 151.514489828 149.918427823 152.246433089 152.242782722 155.625402286 154.367054283 147.762456914 146.428578812 144.070124372 140.806310431 148.862759336 141.336412218 146.267663074 143.922824421 147.687409985 144.99918157 142.395523195 138.250540468 137.305545094 138.521173192 130.174534322 136.994634823 135.260011635 132.481035731 128.230955642 130.448147833 129.859991519 128.448367159 131.747644505 132.105619233 123.306171875 120.113348121 109.751681297 97.2696983047 93.2492233479 91.5259303657 91.3247373426 </DataArray>
<DataArray Name="GFP -1 stddev" format="ascii" type="Float32">25.5074947724 106.699242072 129.017711594 119.913467345 105.071834852 89.240404242 72.6751417675 57.3426268682 45.9166001114 37.4597769277 30.4653989319 25.5621513641 27.1926796913 32.8073610356 35.7887111686 38.5830366101 40.259192968 38.947967908 39.1397265563 30.4376354055 24.9801367436 26.2395227274 25.8116318423 24.2352572297 23.84236581 25.5899405836 24.7384923925 21.7357332767 20.4939719578 20.0507158938 20.2223917478 19.1874910888 17.3711515722 15.6235009365 13.5754668735 14.5451836209 16.8771548902 13.03154488 16.0919221134 13.3398496883 13.1396535385 11.7004102933 12.2096690682 9.93261506445 10.3920114666 6.98014133898 8.7100460036 6.75663034956 4.19238267648 7.62850791778 7.85721126069 2.02369088336 3.94730127446 1.87701473149 1.00893273183 4.04645373541 -0.388897144089 -0.586101867619 0.115867855614 -2.36050203402 -0.669527530634 -3.58320541726 -5.40901915031 -6.64519343214 -8.62929424389 -7.23152047469 -9.16611152026 -9.23330566821 -7.51412159026 -8.66707632628 -7.96082923794 -5.94133869185 -9.34808293021 -7.43841275746 -12.9091944206 -12.3241983193 -15.0503691209 -12.4969082016 -13.6798033516 -12.1441660009 -12.3800361929 -12.80142617 -11.6596906338 -17.0626370875 -13.461732485 -15.4670302696 -15.395001145 -16.7079211658 -14.5129775756 -15.7142983359 -16.7064141387 -15.1937141926 -13.4796917342 -18.4587617236 -20.2869567031 -24.6424596771 -28.2562962827 -29.0731977023 -29.3736646944 -29.4068210596 </DataArray>
<DataArray Name="time" format="ascii" type="Float32">0.0 10.6077491068 21.2154982136 31.8232473204 42.4309964273 53.0387455341 63.6464946409 74.2542437477 84.8619928545 95.4697419613 106.077491068 116.685240175 127.292989282 137.900738389 148.508487495 159.116236602 169.723985709 180.331734816 190.939483923 201.547233029 212.154982136 222.762731243 233.37048035 243.978229457 254.585978564 265.19372767 275.801476777 286.409225884 297.016974991 307.624724098 318.232473204 328.840222311 339.447971418 350.055720525 360.663469632 371.271218738 381.878967845 392.486716952 403.094466059 413.702215166 424.309964273 434.917713379 445.525462486 456.133211593 466.7409607 477.348709807 487.956458913 498.56420802 509.171957127 519.779706234 530.387455341 540.995204447 551.602953554 562.210702661 572.818451768 583.426200875 594.033949982 604.641699088 615.249448195 625.857197302 636.464946409 647.072695516 657.680444622 668.288193729 678.895942836 689.503691943 700.11144105 710.719190156 721.326939263 731.93468837 742.542437477 753.150186584 763.757935691 774.365684797 784.973433904 795.581183011 806.188932118 816.796681225 827.404430331 838.012179438 848.619928545 859.227677652 869.835426759 880.443175865 891.050924972 901.658674079 912.266423186 922.874172293 933.4819214 944.089670506 954.697419613 965.30516872 975.912917827 986.520666934 997.12841604 1007.73616515 1018.34391425 1028.95166336 1039.55941247 1050.16716157 </DataArray>
<DataArray Name="GFP coefficient of variation" format="ascii" type="Float32">0.591272514759 0.387387135943 0.384541780744 0.400531642762 0.41682568962 0.438595957754 0.471960808198 0.513059948052 0.546709597385 0.583617475495 0.640767876041 0.700287867752 0.70670655643 0.674735748233 0.667124451436 0.651196844007 0.640225839379 0.645276817661 0.640049113493 0.700248781862 0.742579629402 0.725993139481 0.728228213278 0.745001671885 0.750578203454 0.738859770003 0.752382445417 0.779783584377 0.791056895984 0.792836427173 0.788277111505 0.794977151178 0.809300598276 0.829121606463 0.848128872185 0.837317789492 0.813499366898 0.849305583651 0.818896387086 0.843780303418 0.846762092495 0.861167372499 0.854280756313 0.88130756091 0.876208918235 0.913547369934 0.895479194653 0.916198866985 0.946200318459 0.90569543463 0.903167464315 0.973775053537 0.949985120947 0.97564205371 0.98665978264 0.948665571398 1.00508996895 1.00771079818 0.998468509995 1.03225844699 1.00897610886 1.04944144955 1.07509881551 1.09174053574 1.12215085513 1.0997348527 1.12812866617 1.12614486549 1.10233532899 1.12462062061 1.11498459768 1.08602607578 1.1422213445 1.10519281775 1.20103517996 1.1840208978 1.23356999113 1.18487849423 1.20834401651 1.18647277483 1.19671067919 1.20563859703 1.18381766315 1.30169482618 1.21794570078 1.25822932351 1.26296904152 1.2996317531 1.25036367383 1.27533756023 1.29901775809 1.26071560439 1.22726383715 1.35210715643 1.40644475704 1.57907848781 1.8188640309 1.90604544017 1.94521621624 1.94986468618 </DataArray>
</PointData>
<CellData/>
<Cells>
<DataArray Name="connectivity" format="ascii" type="Int32">0</DataArray>
<DataArray Name="offsets" format="ascii" type="Int32">0</DataArray>
<DataArray Name="types" format="ascii" type="UInt8">11</DataArray>
</Cells>
</Piece>
</UnstructuredGrid>
</VTKFile>
