<?xml version="1.0" ?>
<VTKFile byte_order="LittleEndian" type="UnstructuredGrid" version="0.1">
<UnstructuredGrid>
<Piece NumberOfCells="0" NumberOfPoints="100">
<Points>
<DataArray NumberOfComponents="3" format="ascii" type="Float32">14.7714342958 14.7714342958 14.7714342958 76.7629633024 76.7629633024 76.7629633024 110.67353653 110.67353653 110.67353653 90.2580799113 90.2580799113 90.2580799113 71.456085257 71.456085257 71.456085257 54.2977186392 54.2977186392 54.2977186392 38.9678042778 38.9678042778 38.9678042778 26.0074237051 26.0074237051 26.0074237051 15.5662452045 15.5662452045 15.5662452045 12.2602000653 12.2602000653 12.2602000653 66.7261513079 66.7261513079 66.7261513079 83.4977027626 83.4977027626 83.4977027626 48.8564257434 48.8564257434 48.8564257434 25.4355157582 25.4355157582 25.4355157582 11.8265348614 11.8265348614 11.8265348614 5.17245684957 5.17245684957 5.17245684957 2.14384955925 2.14384955925 2.14384955925 0.89170573871 0.89170573871 0.89170573871 1.1520981847 1.1520981847 1.1520981847 43.0224956518 43.0224956518 43.0224956518 79.0633182419 79.0633182419 79.0633182419 52.8121534962 52.8121534962 52.8121534962 32.4565823712 32.4565823712 32.4565823712 17.8055571524 17.8055571524 17.8055571524 8.85055952732 8.85055952732 8.85055952732 3.6928238995 3.6928238995 3.6928238995 1.11437601114 1.11437601114 1.11437601114 0.720671635434 0.720671635434 0.720671635434 28.9525802708 28.9525802708 28.9525802708 69.3740298327 69.3740298327 69.3740298327 46.9617556208 46.9617556208 46.9617556208 26.8612590077 26.8612590077 26.8612590077 14.8370339031 14.8370339031 14.8370339031 6.88475492138 6.88475492138 6.88475492138 2.72051636813 2.72051636813 2.72051636813 0.548223502569 0.548223502569 0.548223502569 -0.227687298179 -0.227687298179 -0.227687298179 18.5633405841 18.5633405841 18.5633405841 59.9631580663 59.9631580663 59.9631580663 44.7437597933 44.7437597933 44.7437597933 24.8903496395 24.8903496395 24.8903496395 13.3043521366 13.3043521366 13.3043521366 6.17170046418 6.17170046418 6.17170046418 2.1196292726 2.1196292726 2.1196292726 0.0475934526854 0.0475934526854 0.0475934526854 -0.75573275455 -0.75573275455 -0.75573275455 8.98751663648 8.98751663648 8.98751663648 50.5305282608 50.5305282608 50.5305282608 39.8560478713 39.8560478713 39.8560478713 23.0573246774 23.0573246774 23.0573246774 11.1195673635 11.1195673635 11.1195673635 5.33661833199 5.33661833199 5.33661833199 1.4910174199 1.4910174199 1.4910174199 -0.372494243646 -0.372494243646 -0.372494243646 -0.967815762413 -0.967815762413 -0.967815762413 3.09747296225 3.09747296225 3.09747296225 39.5176862476 39.5176862476 39.5176862476 36.2150498116 36.2150498116 36.2150498116 20.4249789529 20.4249789529 20.4249789529 9.78118159715 9.78118159715 9.78118159715 4.2344450985 4.2344450985 4.2344450985 0.683300413585 0.683300413585 0.683300413585 -0.839796694255 -0.839796694255 -0.839796694255 -1.25616537593 -1.25616537593 -1.25616537593 -0.557077910483 -0.557077910483 -0.557077910483 29.0951060865 29.0951060865 29.0951060865 33.5337867494 33.5337867494 33.5337867494 17.9839677691 17.9839677691 17.9839677691 9.65079444135 9.65079444135 9.65079444135 3.16091240113 3.16091240113 3.16091240113 0.493951610682 0.493951610682 0.493951610682 -1.26280612573 -1.26280612573 -1.26280612573 -1.67048369068 -1.67048369068 -1.67048369068 -2.47000905886 -2.47000905886 -2.47000905886 21.085043431 21.085043431 21.085043431 31.2832197662 31.2832197662 31.2832197662 14.587940173 14.587940173 14.587940173 7.00491255701 7.00491255701 7.00491255701 1.60804086739 1.60804086739 1.60804086739 -1.00184295993 -1.00184295993 -1.00184295993 -1.95409817623 -1.95409817623 -1.95409817623 -2.11219706997 -2.11219706997 -2.11219706997 -3.231874537 -3.231874537 -3.231874537 12.7890103799 12.7890103799 12.7890103799 28.0787113323 28.0787113323 28.0787113323 13.3460140907 13.3460140907 13.3460140907 5.64657404151 5.64657404151 5.64657404151 0.989090711715 0.989090711715 0.989090711715 -1.10363228151 -1.10363228151 -1.10363228151 -2.35295829364 -2.35295829364 -2.35295829364 -2.31169735203 -2.31169735203 -2.31169735203 -2.77906836763 -2.77906836763 -2.77906836763 -3.18468532167 -3.18468532167 -3.18468532167 -3.46648899069 -3.46648899069 -3.46648899069 -3.54199718269 -3.54199718269 -3.54199718269 -3.56584368614 -3.56584368614 -3.56584368614 -3.57866250427 -3.57866250427 -3.57866250427 -3.58395111056 -3.58395111056 -3.58395111056 -3.58527680969 -3.58527680969 -3.58527680969 -3.58527680969 -3.58527680969 -3.58527680969 </DataArray>
</Points>
<PointData>
<DataArray Name="Points" format="ascii" type="Float32">14.7714342958 14.7714342958 14.7714342958 76.7629633024 76.7629633024 76.7629633024 110.67353653 110.67353653 110.67353653 90.2580799113 90.2580799113 90.2580799113 71.456085257 71.456085257 71.456085257 54.2977186392 54.2977186392 54.2977186392 38.9678042778 38.9678042778 38.9678042778 26.0074237051 26.0074237051 26.0074237051 15.5662452045 15.5662452045 15.5662452045 12.2602000653 12.2602000653 12.2602000653 66.7261513079 66.7261513079 66.7261513079 83.4977027626 83.4977027626 83.4977027626 48.8564257434 48.8564257434 48.8564257434 25.4355157582 25.4355157582 25.4355157582 11.8265348614 11.8265348614 11.8265348614 5.17245684957 5.17245684957 5.17245684957 2.14384955925 2.14384955925 2.14384955925 0.89170573871 0.89170573871 0.89170573871 1.1520981847 1.1520981847 1.1520981847 43.0224956518 43.0224956518 43.0224956518 79.0633182419 79.0633182419 79.0633182419 52.8121534962 52.8121534962 52.8121534962 32.4565823712 32.4565823712 32.4565823712 17.8055571524 17.8055571524 17.8055571524 8.85055952732 8.85055952732 8.85055952732 3.6928238995 3.6928238995 3.6928238995 1.11437601114 1.11437601114 1.11437601114 0.720671635434 0.720671635434 0.720671635434 28.9525802708 28.9525802708 28.9525802708 69.3740298327 69.3740298327 69.3740298327 46.9617556208 46.9617556208 46.9617556208 26.8612590077 26.8612590077 26.8612590077 14.8370339031 14.8370339031 14.8370339031 6.88475492138 6.88475492138 6.88475492138 2.72051636813 2.72051636813 2.72051636813 0.548223502569 0.548223502569 0.548223502569 -0.227687298179 -0.227687298179 -0.227687298179 18.5633405841 18.5633405841 18.5633405841 59.9631580663 59.9631580663 59.9631580663 44.7437597933 44.7437597933 44.7437597933 24.8903496395 24.8903496395 24.8903496395 13.3043521366 13.3043521366 13.3043521366 6.17170046418 6.17170046418 6.17170046418 2.1196292726 2.1196292726 2.1196292726 0.0475934526854 0.0475934526854 0.0475934526854 -0.75573275455 -0.75573275455 -0.75573275455 8.98751663648 8.98751663648 8.98751663648 50.5305282608 50.5305282608 50.5305282608 39.8560478713 39.8560478713 39.8560478713 23.0573246774 23.0573246774 23.0573246774 11.1195673635 11.1195673635 11.1195673635 5.33661833199 5.33661833199 5.33661833199 1.4910174199 1.4910174199 1.4910174199 -0.372494243646 -0.372494243646 -0.372494243646 -0.967815762413 -0.967815762413 -0.967815762413 3.09747296225 3.09747296225 3.09747296225 39.5176862476 39.5176862476 39.5176862476 36.2150498116 36.2150498116 36.2150498116 20.4249789529 20.4249789529 20.4249789529 9.78118159715 9.78118159715 9.78118159715 4.2344450985 4.2344450985 4.2344450985 0.683300413585 0.683300413585 0.683300413585 -0.839796694255 -0.839796694255 -0.839796694255 -1.25616537593 -1.25616537593 -1.25616537593 -0.557077910483 -0.557077910483 -0.557077910483 29.0951060865 29.0951060865 29.0951060865 33.5337867494 33.5337867494 33.5337867494 17.9839677691 17.9839677691 17.9839677691 9.65079444135 9.65079444135 9.65079444135 3.16091240113 3.16091240113 3.16091240113 0.493951610682 0.493951610682 0.493951610682 -1.26280612573 -1.26280612573 -1.26280612573 -1.67048369068 -1.67048369068 -1.67048369068 -2.47000905886 -2.47000905886 -2.47000905886 21.085043431 21.085043431 21.085043431 31.2832197662 31.2832197662 31.2832197662 14.587940173 14.587940173 14.587940173 7.00491255701 7.00491255701 7.00491255701 1.60804086739 1.60804086739 1.60804086739 -1.00184295993 -1.00184295993 -1.00184295993 -1.95409817623 -1.95409817623 -1.95409817623 -2.11219706997 -2.11219706997 -2.11219706997 -3.231874537 -3.231874537 -3.231874537 12.7890103799 12.7890103799 12.7890103799 28.0787113323 28.0787113323 28.0787113323 13.3460140907 13.3460140907 13.3460140907 5.64657404151 5.64657404151 5.64657404151 0.989090711715 0.989090711715 0.989090711715 -1.10363228151 -1.10363228151 -1.10363228151 -2.35295829364 -2.35295829364 -2.35295829364 -2.31169735203 -2.31169735203 -2.31169735203 -2.77906836763 -2.77906836763 -2.77906836763 -3.18468532167 -3.18468532167 -3.18468532167 -3.46648899069 -3.46648899069 -3.46648899069 -3.54199718269 -3.54199718269 -3.54199718269 -3.56584368614 -3.56584368614 -3.56584368614 -3.57866250427 -3.57866250427 -3.57866250427 -3.58395111056 -3.58395111056 -3.58395111056 -3.58527680969 -3.58527680969 -3.58527680969 -3.58527680969 -3.58527680969 -3.58527680969 </DataArray>
<DataArray Name="CFP -1 stddev" format="ascii" type="Float32">14.7714342958 76.7629633024 110.67353653 90.2580799113 71.456085257 54.2977186392 38.9678042778 26.0074237051 15.5662452045 12.2602000653 66.7261513079 83.4977027626 48.8564257434 25.4355157582 11.8265348614 5.17245684957 2.14384955925 0.89170573871 1.1520981847 43.0224956518 79.0633182419 52.8121534962 32.4565823712 17.8055571524 8.85055952732 3.6928238995 1.11437601114 0.720671635434 28.9525802708 69.3740298327 46.9617556208 26.8612590077 14.8370339031 6.88475492138 2.72051636813 0.548223502569 -0.227687298179 18.5633405841 59.9631580663 44.7437597933 24.8903496395 13.3043521366 6.17170046418 2.1196292726 0.0475934526854 -0.75573275455 8.98751663648 50.5305282608 39.8560478713 23.0573246774 11.1195673635 5.33661833199 1.4910174199 -0.372494243646 -0.967815762413 3.09747296225 39.5176862476 36.2150498116 20.4249789529 9.78118159715 4.2344450985 0.683300413585 -0.839796694255 -1.25616537593 -0.557077910483 29.0951060865 33.5337867494 17.9839677691 9.65079444135 3.16091240113 0.493951610682 -1.26280612573 -1.67048369068 -2.47000905886 21.085043431 31.2832197662 14.587940173 7.00491255701 1.60804086739 -1.00184295993 -1.95409817623 -2.11219706997 -3.231874537 12.7890103799 28.0787113323 13.3460140907 5.64657404151 0.989090711715 -1.10363228151 -2.35295829364 -2.31169735203 -2.77906836763 -3.18468532167 -3.46648899069 -3.54199718269 -3.56584368614 -3.57866250427 -3.58395111056 -3.58527680969 -3.58527680969 </DataArray>
<DataArray Name="1 stddev of CFP" format="ascii" type="Float32">15.704221456 26.701318937 14.7502902364 16.2422318437 17.6805826866 18.6394803099 19.0018430934 18.4627493659 17.0738961666 17.8538674076 28.3477818559 25.6937683985 26.1244964132 24.4318166502 21.1374532991 17.0995701477 13.4253268724 10.3096950223 10.6180633264 31.9756287508 30.0935723347 28.6495882191 26.5136747161 23.6648357842 19.8879907198 15.9464765309 12.2682237616 9.61499270023 33.1793373497 35.4699985727 32.3575992778 29.6252289613 25.5210266406 21.2335747986 16.9667982941 13.0117077852 9.74745821815 32.869758446 40.6811757915 34.9814943735 31.3913449077 26.5822614881 21.7243337946 17.2093079591 13.2584048618 9.90819302017 31.7387974853 44.8419151285 39.0565506576 33.3742374983 28.1174822675 22.6854205406 17.9142434161 13.6414516978 10.1073171131 28.8679807861 47.9735969454 41.9596095475 35.2054367571 29.1251438583 23.3122592121 18.2047884008 13.8502474278 10.2759961874 25.1508783172 49.9973716655 44.8584309408 37.4737265333 30.3861266868 24.5005751781 19.1665995254 14.6726314413 10.980344654 21.4264487177 50.1686342528 47.1371905627 39.1570349809 31.2503230207 24.8505890991 19.2802538063 14.6473975701 10.8586443537 17.4344222852 49.1252527771 49.8984837632 40.7835578207 32.6083935811 25.7408238807 19.947678782 15.1015043878 11.301032601 8.38066844616 8.02267154318 7.62659981421 7.4765568048 7.42228652349 7.3913619246 7.37820566568 7.37486934448 7.37486934448 </DataArray>
<DataArray Name="CFP coefficient of variation" format="ascii" type="Float32">0.515303807862 0.258072818552 0.117603573553 0.152508772754 0.198353641599 0.255555197875 0.327789523571 0.41517152039 0.523095043385 0.59287465646 0.298165658163 0.235309297743 0.348415245663 0.4899363064 0.64122864006 0.767759941643 0.862301672239 0.920393372424 0.902117045411 0.426352378883 0.275691000135 0.351693784295 0.449610973831 0.570644117609 0.692031802188 0.811967645559 0.916729482308 0.930273312675 0.534014378123 0.338312053745 0.407940777118 0.524465762105 0.632365041748 0.755150644084 0.861813740736 0.959570333291 1.02391730852 0.639077929696 0.40420731334 0.438775576687 0.557754082571 0.666445683712 0.778760650817 0.890339067938 0.99642315807 1.08257154171 0.779319174094 0.470176851247 0.494934286612 0.591410838395 0.716605415849 0.809556386805 0.923164268056 1.02807260819 1.10589371622 0.903099358869 0.5483243038 0.536741827742 0.632845113735 0.748596623232 0.846281244727 0.963823739908 1.06454785552 1.13926706633 1.02265115197 0.632138138626 0.572230666035 0.675717355449 0.758952632485 0.885728763066 0.974876003869 1.09417021445 1.1794316475 1.1302992072 0.704084840019 0.601083192054 0.728571087227 0.816890094879 0.939224333633 1.05481017843 1.15394722173 1.24149200257 1.22755597054 0.793439997058 0.639911242025 0.753443198987 0.852396318898 0.96299686225 1.05856662907 1.18456679501 1.25715998881 1.49612045285 1.65826672005 1.83326842427 1.90022709601 1.92464580354 1.93861647871 1.94457318519 1.94608504128 1.94608504128 </DataArray>
<DataArray Name="time" format="ascii" type="Float32">0.0 10.9756736384 21.9513472769 32.9270209153 43.9026945538 54.8783681922 65.8540418307 76.8297154691 87.8053891076 98.781062746 109.756736384 120.732410023 131.708083661 142.6837573 153.659430938 164.635104577 175.610778215 186.586451854 197.562125492 208.537799131 219.513472769 230.489146407 241.464820046 252.440493684 263.416167323 274.391840961 285.3675146 296.343188238 307.318861877 318.294535515 329.270209153 340.245882792 351.22155643 362.197230069 373.172903707 384.148577346 395.124250984 406.099924623 417.075598261 428.051271899 439.026945538 450.002619176 460.978292815 471.953966453 482.929640092 493.90531373 504.880987369 515.856661007 526.832334645 537.808008284 548.783681922 559.759355561 570.735029199 581.710702838 592.686376476 603.662050115 614.637723753 625.613397392 636.58907103 647.564744668 658.540418307 669.516091945 680.491765584 691.467439222 702.443112861 713.418786499 724.394460138 735.370133776 746.345807414 757.321481053 768.297154691 779.27282833 790.248501968 801.224175607 812.199849245 823.175522884 834.151196522 845.12687016 856.102543799 867.078217437 878.053891076 889.029564714 900.005238353 910.980911991 921.95658563 932.932259268 943.907932907 954.883606545 965.859280183 976.834953822 987.81062746 998.786301099 1009.76197474 1020.73764838 1031.71332201 1042.68899565 1053.66466929 1064.64034293 1075.61601657 1086.59169021 </DataArray>
<DataArray Name="CFP variance" format="ascii" type="Float32">246.622571538 712.960432973 217.571062059 263.810095263 312.603004137 347.430226222 361.070040945 340.873114148 291.517930307 318.76058141 803.596736152 660.169734514 682.489312843 596.913664828 446.791931971 292.395299237 180.23940163 106.289811454 112.743268803 1022.44083401 905.623095862 820.798905125 702.97494695 560.024452693 395.532174871 254.290113749 150.509314266 92.4480846255 1100.86842697 1258.12079875 1047.01423103 877.654191008 651.322800789 450.864698728 287.872244354 169.304539488 95.0129417145 1080.4210203 1654.95806378 1223.70494861 985.416535114 706.616625821 471.946678817 296.160280433 175.785299479 98.172288925 1007.35126581 2010.79735239 1525.41414927 1113.8397286 790.592809064 514.628305104 320.920117171 186.089204424 102.157859224 833.360314667 2301.46600388 1760.60883338 1239.42277726 848.274004768 543.461429572 331.414320717 191.829353812 105.596097644 632.566680129 2499.73717346 2012.27882647 1404.2801803 923.316695025 600.27818406 367.358537366 215.286113412 120.567968721 459.09270465 2516.89186279 2221.91473415 1533.27338849 976.582688899 617.551778573 371.728186836 214.546255576 117.910157201 303.959080419 2413.29046042 2489.85868186 1663.29858851 1063.30733194 662.590014058 397.90988879 228.055434776 127.713337848 70.2356036044 64.3632586898 58.1650247261 55.8989016554 55.0903372367 54.6322311004 54.4379188451 54.3886978481 54.3886978481 </DataArray>
<DataArray Name="CFP median" format="ascii" type="Float32">27.0 104.0 126.0 107.0 90.0 73.0 58.0 43.0 31.0 28.0 94.0 109.0 74.0 47.0 29.0 18.0 12.0 8.0 8.0 76.0 114.0 85.0 60.0 40.0 26.0 16.0 10.0 8.0 64.0 112.0 84.0 58.0 39.0 25.0 16.0 10.0 7.0 52.0 112.0 86.0 59.0 40.0 25.0 16.0 10.0 6.0 39.0 109.0 88.0 61.0 39.0 25.0 16.0 10.0 6.0 26.0 104.0 89.0 61.0 39.0 25.0 15.0 9.0 6.0 15.0 96.0 92.0 63.0 42.0 25.0 16.0 9.0 6.0 10.0 85.0 94.0 61.0 39.0 23.0 14.0 8.0 5.0 7.0 72.0 96.0 63.0 39.0 23.0 14.0 8.0 5.0 2.0 0.0 0.0 0.0 0.0 0.0 0.0 0.0 0.0 </DataArray>
<DataArray Name="CFP +1 stddev" format="ascii" type="Float32">46.1798772077 130.165601176 140.174117003 122.742543599 106.81725063 91.5766792589 76.9714904646 62.9329224368 49.7140375377 47.9679348806 123.42171502 134.885239559 101.10541857 74.2991490585 54.1014414596 39.371597145 28.994503304 21.5110957834 22.3882248375 106.973753153 139.250462911 110.111329934 85.4839318034 65.1352287208 48.6265409669 35.5857769612 25.6508235344 19.9506570359 95.3112549702 140.314026978 111.676954176 86.1117169303 65.8790871843 49.3519045186 36.6541129564 26.571639073 19.2672291381 84.3028574762 141.325509649 114.70674854 87.6730394549 66.4688751128 49.6203680533 36.5382451909 26.5644031762 19.0606532858 72.465111607 140.214358518 117.969149186 89.8057996741 67.3545318985 50.7074594132 37.3195042521 26.910409152 19.2468184637 60.8334345345 135.464880138 120.134268907 90.8358524671 68.0314693138 50.8589635227 37.0928772151 26.8606981614 19.2958269989 49.744678724 129.089849418 123.250648631 92.9314208358 70.4230478149 52.1620627574 38.8271506614 28.0824567569 20.2902056174 40.3828883764 121.422311937 125.557600892 92.9020101348 69.5055585984 51.3092190656 37.5586646527 27.3406969639 19.6050916375 31.6369700334 111.039515934 127.875678859 94.9131297321 70.8633612036 52.4707384732 38.7917252825 27.850050482 20.2903678499 13.9822685247 12.8606577647 11.7867106377 11.4111164269 11.2787293608 11.2040613449 11.1724602208 11.1644618793 11.1644618793 </DataArray>
<DataArray Name="CFP mean" format="ascii" type="Float32">30.4756557518 103.464282239 125.423826766 106.500311755 89.1366679436 72.9371989491 57.9696473712 44.470173071 32.6401413711 30.1140674729 95.0739331638 109.191471161 74.9809221566 49.8673324084 32.9639881605 22.2720269973 15.5691764316 11.201400761 11.7701615111 74.9981244026 109.156890577 81.4617417153 58.9702570873 41.4703929366 28.7385502471 19.6393004304 13.3825997728 10.3356643357 62.1319176205 104.844028405 79.3193548986 56.486487969 40.3580605437 28.11832972 19.6873146623 13.5599312878 9.51977091997 51.4330990302 100.644333858 79.7252541668 56.2816945472 39.8866136247 27.8960342587 19.3289372317 13.3059983145 9.15246026562 40.7263141217 95.3724433893 78.9125985289 56.4315621758 39.237049631 28.0220388726 19.405260836 13.2689574542 9.13950135066 31.9654537484 87.491283193 78.1746593591 55.63041571 38.9063254555 27.5467043106 18.8880888144 13.0104507336 9.01983081148 24.5938004068 79.0924777521 78.3922176902 55.4576943024 40.0369211281 27.6614875793 19.660551136 13.4098253156 9.30986096335 18.9564396588 71.2536776838 78.420410329 53.7449751539 38.2552355777 26.4586299665 18.2784108464 12.6932993939 8.74644728376 14.2025477482 61.914263157 77.9771950955 54.1295719114 38.2549676226 26.7299145924 18.8440465005 12.7485460942 8.98933524894 5.60160007853 4.83798622152 4.16011082352 3.93455962211 3.85644283735 3.81269942032 3.79425455513 3.78959253479 3.78959253479 </DataArray>
</PointData>
<CellData/>
<Cells>
<DataArray Name="connectivity" format="ascii" type="Int32">0</DataArray>
<DataArray Name="offsets" format="ascii" type="Int32">0</DataArray>
<DataArray Name="types" format="ascii" type="UInt8">11</DataArray>
</Cells>
</Piece>
</UnstructuredGrid>
</VTKFile>
