<?xml version="1.0" ?>
<VTKFile byte_order="LittleEndian" type="UnstructuredGrid" version="0.1">
<UnstructuredGrid>
<Piece NumberOfCells="0" NumberOfPoints="101">
<Points>
<DataArray NumberOfComponents="3" format="ascii" type="Float32">55.2080025525 55.2080025525 55.2080025525 73.1803232109 73.1803232109 73.1803232109 83.1718468136 83.1718468136 83.1718468136 80.4524949882 80.4524949882 80.4524949882 76.2133633917 76.2133633917 76.2133633917 71.4785151032 71.4785151032 71.4785151032 66.1316343541 66.1316343541 66.1316343541 60.9440125424 60.9440125424 60.9440125424 54.5918693836 54.5918693836 54.5918693836 51.2910613345 51.2910613345 51.2910613345 55.4264821702 55.4264821702 55.4264821702 62.125734471 62.125734471 62.125734471 68.8363128046 68.8363128046 68.8363128046 72.7578920173 72.7578920173 72.7578920173 74.7774886758 74.7774886758 74.7774886758 74.7697313375 74.7697313375 74.7697313375 72.9610153875 72.9610153875 72.9610153875 70.6671902375 70.6671902375 70.6671902375 68.9216294098 68.9216294098 68.9216294098 68.0418190939 68.0418190939 68.0418190939 67.5835142609 67.5835142609 67.5835142609 67.7800453128 67.7800453128 67.7800453128 68.7225153824 68.7225153824 68.7225153824 69.538546507 69.538546507 69.538546507 70.6501216289 70.6501216289 70.6501216289 71.7691083225 71.7691083225 71.7691083225 72.4495241779 72.4495241779 72.4495241779 73.5084541658 73.5084541658 73.5084541658 73.278333648 73.278333648 73.278333648 73.180423062 73.180423062 73.180423062 73.4396501232 73.4396501232 73.4396501232 73.5973975083 73.5973975083 73.5973975083 73.5895900983 73.5895900983 73.5895900983 73.224114526 73.224114526 73.224114526 72.9199681123 72.9199681123 72.9199681123 73.3674482097 73.3674482097 73.3674482097 73.4761189067 73.4761189067 73.4761189067 73.6604749633 73.6604749633 73.6604749633 73.8339794881 73.8339794881 73.8339794881 74.0248663473 74.0248663473 74.0248663473 74.113063955 74.113063955 74.113063955 73.6980195258 73.6980195258 73.6980195258 73.5050533402 73.5050533402 73.5050533402 73.7472268476 73.7472268476 73.7472268476 74.2887583754 74.2887583754 74.2887583754 74.9990945025 74.9990945025 74.9990945025 74.8682400384 74.8682400384 74.8682400384 74.6509742636 74.6509742636 74.6509742636 74.4747831898 74.4747831898 74.4747831898 74.1323394061 74.1323394061 74.1323394061 74.0078617897 74.0078617897 74.0078617897 74.1614327709 74.1614327709 74.1614327709 74.4523250905 74.4523250905 74.4523250905 74.7006269702 74.7006269702 74.7006269702 75.2588071481 75.2588071481 75.2588071481 75.3498482076 75.3498482076 75.3498482076 75.3611402515 75.3611402515 75.3611402515 75.7328661494 75.7328661494 75.7328661494 75.8185799228 75.8185799228 75.8185799228 75.7282679257 75.7282679257 75.7282679257 75.6184577666 75.6184577666 75.6184577666 75.6192697907 75.6192697907 75.6192697907 75.3488482977 75.3488482977 75.3488482977 75.2336504971 75.2336504971 75.2336504971 75.1713521274 75.1713521274 75.1713521274 75.5320969283 75.5320969283 75.5320969283 75.8231417676 75.8231417676 75.8231417676 75.5205735803 75.5205735803 75.5205735803 75.1067326746 75.1067326746 75.1067326746 74.6795963031 74.6795963031 74.6795963031 74.6064304714 74.6064304714 74.6064304714 74.756303795 74.756303795 74.756303795 74.8251487956 74.8251487956 74.8251487956 74.9144248734 74.9144248734 74.9144248734 75.0107810771 75.0107810771 75.0107810771 74.2806079847 74.2806079847 74.2806079847 74.1639814986 74.1639814986 74.1639814986 73.9608499537 73.9608499537 73.9608499537 73.6125225709 73.6125225709 73.6125225709 73.3659840809 73.3659840809 73.3659840809 73.6347698066 73.6347698066 73.6347698066 74.5188501902 74.5188501902 74.5188501902 74.2294311328 74.2294311328 74.2294311328 73.3174719397 73.3174719397 73.3174719397 73.2977894698 73.2977894698 73.2977894698 72.5586343022 72.5586343022 72.5586343022 72.5285439514 72.5285439514 72.5285439514 72.1343671262 72.1343671262 72.1343671262 72.1900761674 72.1900761674 72.1900761674 72.5462744836 72.5462744836 72.5462744836 72.5707403756 72.5707403756 72.5707403756 72.5932107437 72.5932107437 72.5932107437 72.5220331959 72.5220331959 72.5220331959 71.1943954644 71.1943954644 71.1943954644 66.302618594 66.302618594 66.302618594 63.9232827307 63.9232827307 63.9232827307 62.9088505654 62.9088505654 62.9088505654 62.4305468244 62.4305468244 62.4305468244 62.2558560263 62.2558560263 62.2558560263 62.1850852819 62.1850852819 62.1850852819 62.1789871704 62.1789871704 62.1789871704 </DataArray>
</Points>
<PointData>
<DataArray Name="Points" format="ascii" type="Float32">55.2080025525 55.2080025525 55.2080025525 73.1803232109 73.1803232109 73.1803232109 83.1718468136 83.1718468136 83.1718468136 80.4524949882 80.4524949882 80.4524949882 76.2133633917 76.2133633917 76.2133633917 71.4785151032 71.4785151032 71.4785151032 66.1316343541 66.1316343541 66.1316343541 60.9440125424 60.9440125424 60.9440125424 54.5918693836 54.5918693836 54.5918693836 51.2910613345 51.2910613345 51.2910613345 55.4264821702 55.4264821702 55.4264821702 62.125734471 62.125734471 62.125734471 68.8363128046 68.8363128046 68.8363128046 72.7578920173 72.7578920173 72.7578920173 74.7774886758 74.7774886758 74.7774886758 74.7697313375 74.7697313375 74.7697313375 72.9610153875 72.9610153875 72.9610153875 70.6671902375 70.6671902375 70.6671902375 68.9216294098 68.9216294098 68.9216294098 68.0418190939 68.0418190939 68.0418190939 67.5835142609 67.5835142609 67.5835142609 67.7800453128 67.7800453128 67.7800453128 68.7225153824 68.7225153824 68.7225153824 69.538546507 69.538546507 69.538546507 70.6501216289 70.6501216289 70.6501216289 71.7691083225 71.7691083225 71.7691083225 72.4495241779 72.4495241779 72.4495241779 73.5084541658 73.5084541658 73.5084541658 73.278333648 73.278333648 73.278333648 73.180423062 73.180423062 73.180423062 73.4396501232 73.4396501232 73.4396501232 73.5973975083 73.5973975083 73.5973975083 73.5895900983 73.5895900983 73.5895900983 73.224114526 73.224114526 73.224114526 72.9199681123 72.9199681123 72.9199681123 73.3674482097 73.3674482097 73.3674482097 73.4761189067 73.4761189067 73.4761189067 73.6604749633 73.6604749633 73.6604749633 73.8339794881 73.8339794881 73.8339794881 74.0248663473 74.0248663473 74.0248663473 74.113063955 74.113063955 74.113063955 73.6980195258 73.6980195258 73.6980195258 73.5050533402 73.5050533402 73.5050533402 73.7472268476 73.7472268476 73.7472268476 74.2887583754 74.2887583754 74.2887583754 74.9990945025 74.9990945025 74.9990945025 74.8682400384 74.8682400384 74.8682400384 74.6509742636 74.6509742636 74.6509742636 74.4747831898 74.4747831898 74.4747831898 74.1323394061 74.1323394061 74.1323394061 74.0078617897 74.0078617897 74.0078617897 74.1614327709 74.1614327709 74.1614327709 74.4523250905 74.4523250905 74.4523250905 74.7006269702 74.7006269702 74.7006269702 75.2588071481 75.2588071481 75.2588071481 75.3498482076 75.3498482076 75.3498482076 75.3611402515 75.3611402515 75.3611402515 75.7328661494 75.7328661494 75.7328661494 75.8185799228 75.8185799228 75.8185799228 75.7282679257 75.7282679257 75.7282679257 75.6184577666 75.6184577666 75.6184577666 75.6192697907 75.6192697907 75.6192697907 75.3488482977 75.3488482977 75.3488482977 75.2336504971 75.2336504971 75.2336504971 75.1713521274 75.1713521274 75.1713521274 75.5320969283 75.5320969283 75.5320969283 75.8231417676 75.8231417676 75.8231417676 75.5205735803 75.5205735803 75.5205735803 75.1067326746 75.1067326746 75.1067326746 74.6795963031 74.6795963031 74.6795963031 74.6064304714 74.6064304714 74.6064304714 74.756303795 74.756303795 74.756303795 74.8251487956 74.8251487956 74.8251487956 74.9144248734 74.9144248734 74.9144248734 75.0107810771 75.0107810771 75.0107810771 74.2806079847 74.2806079847 74.2806079847 74.1639814986 74.1639814986 74.1639814986 73.9608499537 73.9608499537 73.9608499537 73.6125225709 73.6125225709 73.6125225709 73.3659840809 73.3659840809 73.3659840809 73.6347698066 73.6347698066 73.6347698066 74.5188501902 74.5188501902 74.5188501902 74.2294311328 74.2294311328 74.2294311328 73.3174719397 73.3174719397 73.3174719397 73.2977894698 73.2977894698 73.2977894698 72.5586343022 72.5586343022 72.5586343022 72.5285439514 72.5285439514 72.5285439514 72.1343671262 72.1343671262 72.1343671262 72.1900761674 72.1900761674 72.1900761674 72.5462744836 72.5462744836 72.5462744836 72.5707403756 72.5707403756 72.5707403756 72.5932107437 72.5932107437 72.5932107437 72.5220331959 72.5220331959 72.5220331959 71.1943954644 71.1943954644 71.1943954644 66.302618594 66.302618594 66.302618594 63.9232827307 63.9232827307 63.9232827307 62.9088505654 62.9088505654 62.9088505654 62.4305468244 62.4305468244 62.4305468244 62.2558560263 62.2558560263 62.2558560263 62.1850852819 62.1850852819 62.1850852819 62.1789871704 62.1789871704 62.1789871704 </DataArray>
<DataArray Name="1 stddev of GFP" format="ascii" type="Float32">55.2080025525 73.1803232109 83.1718468136 80.4524949882 76.2133633917 71.4785151032 66.1316343541 60.9440125424 54.5918693836 51.2910613345 55.4264821702 62.125734471 68.8363128046 72.7578920173 74.7774886758 74.7697313375 72.9610153875 70.6671902375 68.9216294098 68.0418190939 67.5835142609 67.7800453128 68.7225153824 69.538546507 70.6501216289 71.7691083225 72.4495241779 73.5084541658 73.278333648 73.180423062 73.4396501232 73.5973975083 73.5895900983 73.224114526 72.9199681123 73.3674482097 73.4761189067 73.6604749633 73.8339794881 74.0248663473 74.113063955 73.6980195258 73.5050533402 73.7472268476 74.2887583754 74.9990945025 74.8682400384 74.6509742636 74.4747831898 74.1323394061 74.0078617897 74.1614327709 74.4523250905 74.7006269702 75.2588071481 75.3498482076 75.3611402515 75.7328661494 75.8185799228 75.7282679257 75.6184577666 75.6192697907 75.3488482977 75.2336504971 75.1713521274 75.5320969283 75.8231417676 75.5205735803 75.1067326746 74.6795963031 74.6064304714 74.756303795 74.8251487956 74.9144248734 75.0107810771 74.2806079847 74.1639814986 73.9608499537 73.6125225709 73.3659840809 73.6347698066 74.5188501902 74.2294311328 73.3174719397 73.2977894698 72.5586343022 72.5285439514 72.1343671262 72.1900761674 72.5462744836 72.5707403756 72.5932107437 72.5220331959 71.1943954644 66.302618594 63.9232827307 62.9088505654 62.4305468244 62.2558560263 62.1850852819 62.1789871704 </DataArray>
<DataArray Name="GFP variance" format="ascii" type="Float32">3047.92354583 5355.35970526 6917.55610239 6472.60394982 5808.47675948 5109.17812136 4373.39306235 3714.17266477 2980.2722028 2630.77297282 3072.09492577 3859.60688356 4738.43796054 5293.7108508 5591.67281266 5590.51272429 5323.30976638 4993.85177606 4750.1910005 4629.68914561 4567.53139986 4594.13454261 4722.78412049 4835.60945031 4991.43968617 5150.80490941 5248.93355361 5403.49283384 5369.71418223 5355.37431953 5393.38221022 5416.57691999 5415.42777084 5361.77094812 5317.32174949 5382.78245681 5398.74004959 5425.86557182 5451.45652705 5479.68083774 5492.7462488 5431.39808202 5402.99286654 5438.65346771 5518.81962096 5624.86417619 5605.25336644 5572.7679585 5546.49333116 5495.60374582 5477.16360668 5499.91811063 5543.14871138 5580.18366974 5663.88805336 5677.59962492 5679.30146001 5735.4670152 5748.45706151 5734.77056303 5718.151155 5718.27396367 5677.44893979 5660.10216712 5650.73218066 5705.09766638 5749.14882752 5703.3570339 5641.02129306 5577.042104 5566.11946768 5588.50495708 5598.80289229 5612.17105411 5626.6172778 5517.60872258 5500.29615172 5470.20732588 5418.80347925 5382.56762016 5422.07932448 5553.05903367 5510.00844631 5375.45169162 5372.56594117 5264.7554118 5260.38968772 5203.3669207 5211.40709706 5262.96194144 5266.51235867 5269.77424608 5259.44529887 5068.64194554 4396.03723242 4086.18607507 3957.52347946 3897.5731768 3875.79160957 3866.98483152 3866.22644553 </DataArray>
<DataArray Name="GFP median" format="ascii" type="Float32">98.0 184.0 198.0 187.0 168.0 147.0 125.0 106.0 87.0 74.0 69.0 71.0 79.0 89.0 97.0 101.0 101.0 96.0 91.0 87.0 84.0 82.0 81.0 82.0 84.0 84.0 84.0 84.0 83.0 82.0 81.0 81.0 81.0 80.0 79.0 77.0 76.0 76.0 75.0 75.0 75.0 75.0 74.0 72.0 72.0 69.0 68.0 67.0 69.0 69.0 70.0 68.0 66.0 65.0 64.0 63.0 63.0 63.0 63.0 62.0 60.0 59.0 56.0 57.0 56.0 57.0 57.0 57.0 54.0 52.0 49.0 49.0 49.0 49.0 50.0 50.0 48.0 45.0 44.0 42.0 42.0 42.5 43.0 42.0 40.0 36.0 33.0 31.0 26.0 28.0 25.0 31.0 26.0 0.0 0.0 0.0 0.0 0.0 0.0 0.0 0.0 </DataArray>
<DataArray Name="GFP mean" format="ascii" type="Float32">79.1185592796 193.905695728 212.3819 200.402275 181.05235 159.4192 137.891775 118.369943868 99.2662078109 85.6613320577 83.2536974112 87.878373633 96.3011778888 105.364545889 111.86874545 114.749381262 114.646355932 109.174797875 103.634752605 99.5449366467 96.1815549837 94.4581555386 93.1558883594 93.9919252319 96.756851097 97.179993006 96.7200775143 96.3304252745 94.3419880603 93.1092820452 92.0739887168 92.4801166934 92.1510799426 90.5279902643 89.1654645736 87.6323087046 86.9959358551 85.905510839 84.9646653543 85.1009794153 85.2276598715 84.9045773307 83.8869625832 82.3125419027 81.6431422221 79.7458753824 78.9483916321 78.3274323581 79.3765377446 79.1906187848 79.3784643445 78.0712091532 76.1118971357 75.4011424795 74.6590087519 74.0649654716 74.894698552 74.6404104995 74.2256090753 73.7102958151 72.2893866716 71.2694792763 69.441925734 69.3905468429 68.9281549256 69.5160081429 70.1666666667 69.3809305629 67.6325394801 66.0681452376 64.2394150974 64.3651335418 64.684293119 64.773602434 65.4738809393 64.9569632936 63.6787940151 62.4173510939 61.9947059936 61.0428956324 60.919433834 61.6038118789 61.4658463765 60.8057717177 60.1122802192 58.3565197376 57.3365490953 56.4074717844 55.8026626381 56.2527377184 55.8873621324 57.0827852908 56.1297922221 51.0454093553 39.7499177425 35.6172002359 34.0229110066 33.3007799199 33.0414756182 32.9370850306 32.9281076141 </DataArray>
<DataArray Name="GFP +1 stddev" format="ascii" type="Float32">134.326561832 267.086018939 295.553746814 280.854769988 257.265713392 230.897715103 204.023409354 179.31395641 153.858077195 136.952393392 138.680179581 150.004108104 165.137490693 178.122437906 186.646234125 189.5191126 187.60737132 179.841988113 172.556382015 167.586755741 163.765069245 162.238200851 161.878403742 163.530471739 167.406972726 168.949101329 169.169601692 169.83887944 167.620321708 166.289705107 165.51363884 166.077514202 165.740670041 163.75210479 162.085432686 160.999756914 160.472054762 159.565985802 158.798644842 159.125845763 159.340723827 158.602596856 157.392015923 156.05976875 155.931900597 154.744969885 153.81663167 152.978406622 153.851320934 153.322958191 153.386326134 152.232641924 150.564222226 150.10176945 149.9178159 149.414813679 150.255838804 150.373276649 150.044188998 149.438563741 147.907844438 146.888749067 144.790774032 144.62419734 144.099507053 145.048105071 145.989808434 144.901504143 142.739272155 140.747741541 138.845845569 139.121437337 139.509441915 139.688027307 140.484662016 139.237571278 137.842775514 136.378201048 135.607228564 134.408879713 134.554203641 136.122662069 135.695277509 134.123243657 133.410069689 130.91515404 129.865093047 128.541838911 127.992738806 128.799012202 128.458102508 129.675996035 128.651825418 122.23980482 106.052536336 99.5404829666 96.9317615719 95.7313267443 95.2973316445 95.1221703125 95.1070947845 </DataArray>
<DataArray Name="GFP -1 stddev" format="ascii" type="Float32">23.9105567272 120.725372517 129.210053186 119.949780012 104.838986608 87.9406848968 71.7601406459 57.4259313252 44.6743384274 34.3702707232 27.827215241 25.752639162 27.4648650842 32.6066538715 37.0912567737 39.9796499249 41.6853405447 38.5076076378 34.7131231956 31.5031175528 28.5980407227 26.6781102258 24.433372977 24.4533787248 26.1067294682 25.4108846835 24.2705533364 22.8219711087 21.0636544122 19.9288589832 18.6343385936 18.8827191851 18.5614898443 17.3038757383 16.2454964614 14.2648604949 13.5198169484 12.2450358756 11.1306858662 11.0761130679 11.1145959165 11.2065578049 10.381909243 8.56531505505 7.35438384674 4.7467808799 4.08015159377 3.67645809449 4.90175455488 5.05827937867 5.37060255482 3.90977638235 1.65957204528 0.700515509285 -0.599798396208 -1.28488273607 -0.466441699485 -1.09245564992 -1.59297084754 -2.01797211061 -3.32907109495 -4.34979051431 -5.90692256371 -5.84310365419 -6.24319720181 -6.01608878539 -5.65647510097 -6.13964301742 -7.47419319454 -8.6114510655 -10.3670153739 -10.3911702532 -10.1408556766 -10.1408224394 -9.53690013787 -9.32364469114 -10.4851874835 -11.5434988598 -11.6178165773 -12.3230884485 -12.7153359726 -12.9150383113 -12.7635847563 -12.511700222 -13.1855092507 -14.2021145646 -15.1919948562 -15.7268953418 -16.3874135293 -16.2935367652 -16.6833782433 -15.5104254528 -16.3922409738 -20.1489861092 -26.5527008515 -28.3060824949 -28.8859395588 -29.1297669045 -29.2143804081 -29.2480002513 -29.2508795563 </DataArray>
<DataArray Name="time" format="ascii" type="Float32">0.0 10.7892491588 21.5784983176 32.3677474764 43.1569966352 53.946245794 64.7354949527 75.5247441115 86.3139932703 97.1032424291 107.892491588 118.681740747 129.470989905 140.260239064 151.049488223 161.838737382 172.627986541 183.417235699 194.206484858 204.995734017 215.784983176 226.574232335 237.363481493 248.152730652 258.941979811 269.73122897 280.520478129 291.309727287 302.098976446 312.888225605 323.677474764 334.466723923 345.255973081 356.04522224 366.834471399 377.623720558 388.412969716 399.202218875 409.991468034 420.780717193 431.569966352 442.35921551 453.148464669 463.937713828 474.726962987 485.516212146 496.305461304 507.094710463 517.883959622 528.673208781 539.46245794 550.251707098 561.040956257 571.830205416 582.619454575 593.408703734 604.197952892 614.987202051 625.77645121 636.565700369 647.354949527 658.144198686 668.933447845 679.722697004 690.511946163 701.301195321 712.09044448 722.879693639 733.668942798 744.458191957 755.247441115 766.036690274 776.825939433 787.615188592 798.404437751 809.193686909 819.982936068 830.772185227 841.561434386 852.350683544 863.139932703 873.929181862 884.718431021 895.50768018 906.296929338 917.086178497 927.875427656 938.664676815 949.453925974 960.243175132 971.032424291 981.82167345 992.610922609 1003.40017177 1014.18942093 1024.97867009 1035.76791924 1046.5571684 1057.34641756 1068.13566672 1078.92491588 </DataArray>
<DataArray Name="GFP coefficient of variation" format="ascii" type="Float32">0.697788269341 0.377401617503 0.391614571739 0.401454998394 0.420946557124 0.448368296311 0.479590855612 0.51486053428 0.549954214908 0.598765628579 0.665754001248 0.706951345395 0.714802397164 0.690534860693 0.668439503593 0.651591586071 0.636400649583 0.647284827751 0.665043604361 0.683528679469 0.702666059749 0.717566894318 0.737715206121 0.739835324529 0.730182109358 0.738517323397 0.749063959003 0.7630865737 0.776730861355 0.785962703767 0.797615604002 0.795818605553 0.798575449622 0.808856071059 0.817805060075 0.837219163733 0.844592545439 0.857459250797 0.868996296051 0.86984740782 0.869589333636 0.868009968871 0.876239299608 0.895941555721 0.909920372409 0.940476158082 0.948318749636 0.953062956568 0.938246808262 0.936125270186 0.932341818412 0.949920381345 0.978195628966 0.99070948415 1.0080338382 1.01734805016 1.00622796685 1.01463624922 1.02146120278 1.02737707247 1.0460520036 1.06103300541 1.0850627701 1.08420604708 1.09057542899 1.08654249498 1.08061484704 1.08849179404 1.11051179287 1.13034195276 1.16138091168 1.16144098025 1.15677462314 1.15655795044 1.14565961267 1.14353572301 1.16465744438 1.18494054389 1.18740013992 1.20187588287 1.20872380409 1.20964673966 1.20765328241 1.20576500994 1.21934801346 1.24336808686 1.26496179306 1.27880872594 1.29366723297 1.28964877846 1.29851790471 1.27171809108 1.2920417184 1.39472670243 1.66799385658 1.79473070054 1.84901434663 1.87474728744 1.88417299353 1.88799601495 1.88832555758 </DataArray>
</PointData>
<CellData/>
<Cells>
<DataArray Name="connectivity" format="ascii" type="Int32">0</DataArray>
<DataArray Name="offsets" format="ascii" type="Int32">0</DataArray>
<DataArray Name="types" format="ascii" type="UInt8">11</DataArray>
</Cells>
</Piece>
</UnstructuredGrid>
</VTKFile>
